 title = "grid"
                                   variables = "x","y","rho","P","u","v","M","S"
 zone n=        3000  e =        5742  et=quadrilateral, f=fepoint
   0.00000000       0.00000000      0.956380069      0.939469635      0.351810366      -1.25191337E-03  0.300000012       4.09781933E-08
   1.00000000       0.00000000      0.956380069      0.939469755      0.177529439     -0.303735107      0.299999535       1.60187483E-07
   1.00000000      0.300000012      0.956380069      0.939469635      0.176979482     -0.304056525      0.300000012       4.09781933E-08
   0.00000000      0.300000012      0.956380069      0.939469755      0.351807147      -1.86107669E-03  0.299999535       1.60187483E-07
   1.00000000       1.03448275E-02  0.956380069      0.939469755      0.177349001     -0.303840578      0.299999535       1.60187483E-07
   1.00000000       2.06896551E-02  0.956380069      0.939469755      0.177348509     -0.303840846      0.299999535       1.60187483E-07
   1.00000000       3.10344826E-02  0.956380069      0.939469755      0.177348077     -0.303841114      0.299999535       1.60187483E-07
   1.00000000       4.13793102E-02  0.956380069      0.939469755      0.177347600     -0.303841412      0.299999565       1.60187483E-07
   1.00000000       5.17241396E-02  0.956380069      0.939469755      0.177347139     -0.303841650      0.299999535       1.60187483E-07
   1.00000000       6.20689653E-02  0.956380069      0.939469755      0.177346691     -0.303841919      0.299999535       1.60187483E-07
   1.00000000       7.24137947E-02  0.956380069      0.939469755      0.177346230     -0.303842187      0.299999535       1.60187483E-07
   1.00000000       8.27586204E-02  0.956380069      0.939469755      0.177345768     -0.303842455      0.299999535       1.60187483E-07
   1.00000000       9.31034461E-02  0.956380069      0.939469755      0.177345335     -0.303842694      0.299999535       1.60187483E-07
   1.00000000      0.103448279      0.956380069      0.939469755      0.177344888     -0.303842962      0.299999535       1.60187483E-07
   1.00000000      0.113793105      0.956380069      0.939469755      0.177344412     -0.303843230      0.299999535       1.60187483E-07
   1.00000000      0.124137931      0.956380069      0.939469755      0.177343965     -0.303843498      0.299999535       1.60187483E-07
   1.00000000      0.134482756      0.956380069      0.939469755      0.177343518     -0.303843737      0.299999535       1.60187483E-07
   1.00000000      0.144827589      0.956380069      0.939469755      0.177343041     -0.303844035      0.299999535       1.60187483E-07
   1.00000000      0.155172408      0.956380069      0.939469755      0.177342609     -0.303844303      0.299999535       1.60187483E-07
   1.00000000      0.165517241      0.956380069      0.939469755      0.177342147     -0.303844601      0.299999595       1.60187483E-07
   1.00000000      0.175862074      0.956380069      0.939469755      0.177341715     -0.303844839      0.299999565       1.60187483E-07
   1.00000000      0.186206892      0.956380069      0.939469755      0.177341223     -0.303845078      0.299999535       1.60187483E-07
   1.00000000      0.196551725      0.956380069      0.939469755      0.177340776     -0.303845406      0.299999565       1.60187483E-07
   1.00000000      0.206896558      0.956380069      0.939469755      0.177340299     -0.303845644      0.299999535       1.60187483E-07
   1.00000000      0.217241377      0.956380069      0.939469755      0.177339867     -0.303845912      0.299999565       1.60187483E-07
   1.00000000      0.227586210      0.956380069      0.939469755      0.177339435     -0.303846151      0.299999535       1.60187483E-07
   1.00000000      0.237931028      0.956380069      0.939469755      0.177338988     -0.303846419      0.299999565       1.60187483E-07
   1.00000000      0.248275861      0.956380069      0.939469755      0.177338496     -0.303846717      0.299999565       1.60187483E-07
   1.00000000      0.258620679      0.956380069      0.939469755      0.177338049     -0.303846955      0.299999535       1.60187483E-07
   1.00000000      0.268965513      0.956380069      0.939469755      0.177337602     -0.303847253      0.299999565       1.60187483E-07
   1.00000000      0.279310346      0.956380069      0.939469755      0.177337125     -0.303847522      0.299999565       1.60187483E-07
   1.00000000      0.289655179      0.956380069      0.939469755      0.177336693     -0.303847730      0.299999535       1.60187483E-07
  0.989898980      0.300000012      0.956380069      0.939470112      0.178405464     -0.303218067      0.299997002       6.03497028E-07
  0.979797959      0.300000012      0.956380069      0.939470112      0.181603238     -0.301313728      0.299997002       6.03497028E-07
  0.969696999      0.300000012      0.956380069      0.939470112      0.184780657     -0.299375713      0.299997032       6.03497028E-07
  0.959595978      0.300000012      0.956380069      0.939470053      0.187937424     -0.297404140      0.299997032       4.60073352E-07
  0.949494958      0.300000012      0.956380069      0.939470112      0.191073179     -0.295399308      0.299997032       6.03497028E-07
  0.939393938      0.300000012      0.956380069      0.939470112      0.194187507     -0.293361425      0.299997032       6.03497028E-07
  0.929292917      0.300000012      0.956380069      0.939470112      0.197280139     -0.291290671      0.299997002       6.03497028E-07
  0.919191897      0.300000012      0.956380069      0.939470112      0.200350687     -0.289187312      0.299997002       6.03497028E-07
  0.909090936      0.300000012      0.956380069      0.939470112      0.203398794     -0.287051618      0.299997002       6.03497028E-07
  0.898989916      0.300000012      0.956380069      0.939470112      0.206424147     -0.284883827      0.299997032       6.03497028E-07
  0.888888896      0.300000012      0.956380069      0.939470112      0.209426403     -0.282684088      0.299997032       6.03497028E-07
  0.878787875      0.300000012      0.956380069      0.939470112      0.212405190     -0.280452758      0.299997032       6.03497028E-07
  0.868686855      0.300000012      0.956380069      0.939470112      0.215360239     -0.278190017      0.299997032       6.03497028E-07
  0.858585835      0.300000012      0.956380069      0.939470112      0.218291163     -0.275896132      0.299997032       6.03497028E-07
  0.848484874      0.300000012      0.956380069      0.939470112      0.221197665     -0.273571402      0.299997032       6.03497028E-07
  0.838383853      0.300000012      0.956380069      0.939470112      0.224079415     -0.271216005      0.299997032       6.03497028E-07
  0.828282833      0.300000012      0.956380069      0.939470112      0.226936072     -0.268830299      0.299997032       6.03497028E-07
  0.818181813      0.300000012      0.956380069      0.939470112      0.229767352     -0.266414464      0.299997002       6.03497028E-07
  0.808080792      0.300000012      0.956380069      0.939470112      0.232572898     -0.263968855      0.299997032       6.03497028E-07
  0.797979772      0.300000012      0.956380069      0.939470112      0.235352427     -0.261493683      0.299997032       6.03497028E-07
  0.787878811      0.300000012      0.956380069      0.939470112      0.238105625     -0.258989245      0.299997032       6.03497028E-07
  0.777777791      0.300000012      0.956380069      0.939470112      0.240832150     -0.256455839      0.299997032       6.03497028E-07
  0.767676771      0.300000012      0.956380069      0.939470112      0.243531689     -0.253893703      0.299997002       6.03497028E-07
  0.757575750      0.300000012      0.956380069      0.939470112      0.246204048     -0.251303166      0.299997032       6.03497028E-07
  0.747474730      0.300000012      0.956380069      0.939470112      0.248848841     -0.248684481      0.299997032       6.03497028E-07
  0.737373710      0.300000012      0.956380069      0.939470112      0.251465738     -0.246037960      0.299997002       6.03497028E-07
  0.727272749      0.300000012      0.956380069      0.939470112      0.254054517     -0.243363947      0.299997002       6.03497028E-07
  0.717171729      0.300000012      0.956380069      0.939470112      0.256614864     -0.240662679      0.299997032       6.03497028E-07
  0.707070708      0.300000012      0.956380069      0.939470112      0.259146512     -0.237934485      0.299997061       6.03497028E-07
  0.696969688      0.300000012      0.956380069      0.939470112      0.261649132     -0.235179633      0.299997061       6.03497028E-07
  0.686868668      0.300000012      0.956380069      0.939470112      0.264122486     -0.232398450      0.299997061       6.03497028E-07
  0.676767647      0.300000012      0.956380069      0.939470112      0.266566187     -0.229591295      0.299997002       6.03497028E-07
  0.666666687      0.300000012      0.956380069      0.939470112      0.268980145     -0.226758435      0.299997002       6.03497028E-07
  0.656565666      0.300000012      0.956380069      0.939470112      0.271363974     -0.223900199      0.299997032       6.03497028E-07
  0.646464646      0.300000012      0.956380069      0.939470112      0.273717433     -0.221016929      0.299997032       6.03497028E-07
  0.636363626      0.300000012      0.956380069      0.939470112      0.276040226     -0.218108937      0.299997032       6.03497028E-07
  0.626262605      0.300000012      0.956380069      0.939470112      0.278332114     -0.215176553      0.299997032       6.03497028E-07
  0.616161644      0.300000012      0.956380069      0.939470112      0.280592799     -0.212220132      0.299997002       6.03497028E-07
  0.606060624      0.300000012      0.956380069      0.939470112      0.282822043     -0.209240049      0.299997032       6.03497028E-07
  0.595959604      0.300000012      0.956380069      0.939470112      0.285019517     -0.206236750      0.299997032       6.03497028E-07
  0.585858583      0.300000012      0.956380069      0.939470112      0.287184924     -0.203210577      0.299997032       6.03497028E-07
  0.575757563      0.300000012      0.956380069      0.939470112      0.289317906     -0.200162113      0.299997032       6.03497028E-07
  0.565656543      0.300000012      0.956380069      0.939470112      0.291418105     -0.197091877      0.299997032       6.03497028E-07
  0.555555582      0.300000012      0.956380069      0.939470112      0.293485165     -0.194000438      0.299997032       6.03497028E-07
  0.545454562      0.300000012      0.956380069      0.939470112      0.295518845     -0.190888241      0.299997002       6.03497028E-07
  0.535353541      0.300000012      0.956380069      0.939470112      0.297519118     -0.187755406      0.299997032       6.03497028E-07
  0.525252521      0.300000012      0.956380069      0.939470053      0.299486399     -0.184601247      0.299997061       4.60073352E-07
  0.515151501      0.300000012      0.956380069      0.939470112      0.301421016     -0.181425184      0.299997061       6.03497028E-07
  0.505050480      0.300000012      0.956380069      0.939470112      0.303322881     -0.178227276      0.299997061       6.03497028E-07
  0.494949490      0.300000012      0.956380069      0.939470112      0.305191249     -0.175008640      0.299997032       6.03497028E-07
  0.484848499      0.300000012      0.956380069      0.939470112      0.307025462     -0.171770409      0.299997032       6.03497028E-07
  0.474747479      0.300000012      0.956380069      0.939470112      0.308824897     -0.168513775      0.299997032       6.03497028E-07
  0.464646459      0.300000012      0.956380069      0.939470112      0.310588956     -0.165239856      0.299997032       6.03497028E-07
  0.454545468      0.300000012      0.956380069      0.939470112      0.312317580     -0.161948889      0.299997032       6.03497028E-07
  0.444444448      0.300000012      0.956380069      0.939470112      0.314011157     -0.158640176      0.299997032       6.03497028E-07
  0.434343427      0.300000012      0.956380069      0.939470112      0.315670043     -0.155313060      0.299997032       6.03497028E-07
  0.424242437      0.300000012      0.956380069      0.939470112      0.317294121     -0.151967585      0.299997032       6.03497028E-07
  0.414141417      0.300000012      0.956380069      0.939470112      0.318883181     -0.148604214      0.299997002       6.03497028E-07
  0.404040396      0.300000012      0.956380069      0.939470112      0.320436925     -0.145223603      0.299997032       6.03497028E-07
  0.393939406      0.300000012      0.956380069      0.939470112      0.321954995     -0.141826287      0.299997032       6.03497028E-07
  0.383838385      0.300000012      0.956380069      0.939470112      0.323437184     -0.138412789      0.299997032       6.03497028E-07
  0.373737365      0.300000012      0.956380069      0.939470112      0.324883252     -0.134983629      0.299997032       6.03497028E-07
  0.363636374      0.300000012      0.956380069      0.939470112      0.326292992     -0.131539240      0.299997002       6.03497028E-07
  0.353535354      0.300000012      0.956380069      0.939470112      0.327666312     -0.128080070      0.299997032       6.03497028E-07
  0.343434334      0.300000012      0.956380069      0.939470112      0.329002887     -0.124606557      0.299997002       6.03497028E-07
  0.333333343      0.300000012      0.956380069      0.939470112      0.330302715     -0.121119082      0.299997032       6.03497028E-07
  0.323232323      0.300000012      0.956380069      0.939470112      0.331565529     -0.117618024      0.299997002       6.03497028E-07
  0.313131303      0.300000012      0.956380069      0.939470112      0.332791269     -0.114103794      0.299997002       6.03497028E-07
  0.303030312      0.300000012      0.956380069      0.939470112      0.333979785     -0.110576794      0.299997061       6.03497028E-07
  0.292929292      0.300000012      0.956380069      0.939470112      0.335130900     -0.107037432      0.299997061       6.03497028E-07
  0.282828271      0.300000012      0.956380069      0.939470112      0.336244494     -0.103486076      0.299997061       6.03497028E-07
  0.272727281      0.300000012      0.956380069      0.939470112      0.337320417      -9.99231339E-02  0.299997002       6.03497028E-07
  0.262626261      0.300000012      0.956380069      0.939470112      0.338358670      -9.63490084E-02  0.299997032       6.03497028E-07
  0.252525240      0.300000012      0.956380069      0.939470112      0.339359015      -9.27641019E-02  0.299997032       6.03497028E-07
  0.242424250      0.300000012      0.956380069      0.939470112      0.340321362      -8.91688243E-02  0.299997032       6.03497028E-07
  0.232323229      0.300000012      0.956380069      0.939470112      0.341245621      -8.55635554E-02  0.299997002       6.03497028E-07
  0.222222224      0.300000012      0.956380069      0.939470112      0.342131704      -8.19487050E-02  0.299997002       6.03497028E-07
  0.212121218      0.300000012      0.956380069      0.939470112      0.342979521      -7.83246905E-02  0.299997032       6.03497028E-07
  0.202020198      0.300000012      0.956380069      0.939470112      0.343788952      -7.46919215E-02  0.299997032       6.03497028E-07
  0.191919193      0.300000012      0.956380069      0.939470112      0.344559878      -7.10507855E-02  0.299997032       6.03497028E-07
  0.181818187      0.300000012      0.956380069      0.939470112      0.345292240      -6.74016848E-02  0.299997032       6.03497028E-07
  0.171717167      0.300000012      0.956380069      0.939470112      0.345985979      -6.37450516E-02  0.299997061       6.03497028E-07
  0.161616161      0.300000012      0.956380069      0.939470112      0.346640915      -6.00812845E-02  0.299997002       6.03497028E-07
  0.151515156      0.300000012      0.956380069      0.939470112      0.347257137      -5.64107969E-02  0.299997002       6.03497028E-07
  0.141414136      0.300000012      0.956380069      0.939470112      0.347834498      -5.27339876E-02  0.299997032       6.03497028E-07
  0.131313130      0.300000012      0.956380069      0.939470112      0.348372906      -4.90512811E-02  0.299997032       6.03497028E-07
  0.121212125      0.300000012      0.956380069      0.939470112      0.348872334      -4.53630909E-02  0.299997032       6.03497028E-07
  0.111111112      0.300000012      0.956380069      0.939470112      0.349332720      -4.16698158E-02  0.299997032       6.03497028E-07
  0.101010099      0.300000012      0.956380069      0.939470112      0.349753976      -3.79718766E-02  0.299997032       6.03497028E-07
   9.09090936E-02  0.300000012      0.956380069      0.939470112      0.350136101      -3.42696868E-02  0.299997002       6.03497028E-07
   8.08080807E-02  0.300000012      0.956380069      0.939470112      0.350479037      -3.05636600E-02  0.299997002       6.03497028E-07
   7.07070678E-02  0.300000012      0.956380069      0.939470112      0.350782752      -2.68542171E-02  0.299997002       6.03497028E-07
   6.06060624E-02  0.300000012      0.956380069      0.939470112      0.351047277      -2.31417697E-02  0.299997061       6.03497028E-07
   5.05050495E-02  0.300000012      0.956380069      0.939470112      0.351272404      -1.94267277E-02  0.299997002       6.03497028E-07
   4.04040404E-02  0.300000012      0.956380069      0.939470112      0.351458251      -1.57095157E-02  0.299997002       6.03497028E-07
   3.03030312E-02  0.300000012      0.956380069      0.939470112      0.351604819      -1.19905397E-02  0.299997032       6.03497028E-07
   2.02020202E-02  0.300000012      0.956380069      0.939470112      0.351711959      -8.27022456E-03  0.299997002       6.03497028E-07
   1.01010101E-02  0.300000012      0.956380069      0.939470112      0.351779819      -4.54898272E-03  0.299997061       6.03497028E-07
   0.00000000      0.289655179      0.956380069      0.939469755      0.351808190      -1.65473099E-03  0.299999535       1.60187483E-07
   0.00000000      0.279310346      0.956380069      0.939469755      0.351808190      -1.65525766E-03  0.299999535       1.60187483E-07
   0.00000000      0.268965513      0.956380069      0.939469755      0.351808190      -1.65578432E-03  0.299999535       1.60187483E-07
   0.00000000      0.258620679      0.956380069      0.939469755      0.351808190      -1.65631087E-03  0.299999535       1.60187483E-07
   0.00000000      0.248275861      0.956380069      0.939469755      0.351808190      -1.65683730E-03  0.299999535       1.60187483E-07
   0.00000000      0.237931028      0.956380069      0.939469755      0.351808190      -1.65736419E-03  0.299999535       1.60187483E-07
   0.00000000      0.227586210      0.956380069      0.939469755      0.351808190      -1.65789062E-03  0.299999535       1.60187483E-07
   0.00000000      0.217241377      0.956380069      0.939469755      0.351808190      -1.65841717E-03  0.299999535       1.60187483E-07
   0.00000000      0.206896558      0.956380069      0.939469755      0.351808190      -1.65894371E-03  0.299999535       1.60187483E-07
   0.00000000      0.196551725      0.956380069      0.939469755      0.351808190      -1.65947038E-03  0.299999535       1.60187483E-07
   0.00000000      0.186206892      0.956380069      0.939469755      0.351808190      -1.65999692E-03  0.299999535       1.60187483E-07
   0.00000000      0.175862074      0.956380069      0.939469755      0.351808190      -1.66052370E-03  0.299999535       1.60187483E-07
   0.00000000      0.165517241      0.956380069      0.939469755      0.351808190      -1.66105037E-03  0.299999535       1.60187483E-07
   0.00000000      0.155172408      0.956380069      0.939469755      0.351808190      -1.66157680E-03  0.299999565       1.60187483E-07
   0.00000000      0.144827589      0.956380069      0.939469755      0.351808190      -1.66210346E-03  0.299999565       1.60187483E-07
   0.00000000      0.134482756      0.956380069      0.939469755      0.351808190      -1.66263001E-03  0.299999565       1.60187483E-07
   0.00000000      0.124137931      0.956380069      0.939469755      0.351808190      -1.66315667E-03  0.299999565       1.60187483E-07
   0.00000000      0.113793105      0.956380069      0.939469755      0.351808190      -1.66368310E-03  0.299999565       1.60187483E-07
   0.00000000      0.103448279      0.956380069      0.939469755      0.351808131      -1.66420988E-03  0.299999535       1.60187483E-07
   0.00000000       9.31034461E-02  0.956380069      0.939469755      0.351808131      -1.66473642E-03  0.299999535       1.60187483E-07
   0.00000000       8.27586204E-02  0.956380069      0.939469755      0.351808131      -1.66526309E-03  0.299999535       1.60187483E-07
   0.00000000       7.24137947E-02  0.956380069      0.939469755      0.351808131      -1.66578987E-03  0.299999535       1.60187483E-07
   0.00000000       6.20689653E-02  0.956380069      0.939469755      0.351808131      -1.66631630E-03  0.299999535       1.60187483E-07
   0.00000000       5.17241396E-02  0.956380069      0.939469755      0.351808131      -1.66684308E-03  0.299999535       1.60187483E-07
   0.00000000       4.13793102E-02  0.956380069      0.939469755      0.351808131      -1.66736962E-03  0.299999535       1.60187483E-07
   0.00000000       3.10344826E-02  0.956380069      0.939469755      0.351808131      -1.66789617E-03  0.299999535       1.60187483E-07
   0.00000000       2.06896551E-02  0.956380069      0.939469755      0.351808131      -1.66842272E-03  0.299999535       1.60187483E-07
   0.00000000       1.03448275E-02  0.956380069      0.939469755      0.351808131      -1.66894950E-03  0.299999535       1.60187483E-07
   1.01942774E-02  -1.06002917E-05  0.956380069      0.939470112      0.351797014      -2.92080990E-03  0.299996972       6.03497028E-07
   2.03885511E-02  -4.05888240E-05  0.956380069      0.939470112      0.351745784      -6.67562289E-03  0.299996942       6.03497028E-07
   3.05827484E-02  -8.74972393E-05  0.956380069      0.939470112      0.351654500      -1.04296580E-02  0.299996942       6.03497028E-07
   4.07768898E-02  -1.49138228E-04  0.956380069      0.939470112      0.351523161      -1.41824801E-02  0.299996972       6.03497028E-07
   5.09709269E-02  -2.23550553E-04  0.956380069      0.939470112      0.351351738      -1.79336555E-02  0.299996942       6.03497028E-07
   6.11648858E-02  -3.08956922E-04  0.956380069      0.939470112      0.351140350      -2.16827560E-02  0.299997002       6.03497028E-07
   7.13587478E-02  -4.03728453E-04  0.956380069      0.939470112      0.350888878      -2.54293513E-02  0.299996942       6.03497028E-07
   8.15525427E-02  -5.06357115E-04  0.956380069      0.939470112      0.350597501      -2.91730259E-02  0.299996972       6.03497028E-07
   9.17462707E-02  -6.15430705E-04  0.956380069      0.939470112      0.350266129      -3.29133533E-02  0.299996942       6.03497028E-07
  0.101939946      -7.29613879E-04  0.956380069      0.939470112      0.349894881      -3.66499089E-02  0.299996912       6.03497028E-07
  0.112133577      -8.47629446E-04  0.956380069      0.939470112      0.349483818      -4.03822735E-02  0.299996972       6.03497028E-07
  0.122327171      -9.68243345E-04  0.956380069      0.939470112      0.349032879      -4.41100225E-02  0.299996942       6.03497028E-07
  0.132520750      -1.09024998E-03  0.956380069      0.939470112      0.348542243      -4.78327423E-02  0.299996942       6.03497028E-07
  0.142714337      -1.21245917E-03  0.956380069      0.939470112      0.348011881      -5.15500121E-02  0.299996972       6.03497028E-07
  0.152907923      -1.33368257E-03  0.956380069      0.939470112      0.347441882      -5.52614108E-02  0.299997002       6.03497028E-07
  0.163101539      -1.45272142E-03  0.956380069      0.939470112      0.346832246      -5.89665249E-02  0.299996942       6.03497028E-07
  0.173295200      -1.56835280E-03  0.956380069      0.939470112      0.346183151      -6.26649335E-02  0.299996972       6.03497028E-07
  0.183488905      -1.67931605E-03  0.956380069      0.939470112      0.345494598      -6.63562268E-02  0.299996972       6.03497028E-07
  0.193682685      -1.78429752E-03  0.956380069      0.939470112      0.344766676      -7.00399727E-02  0.299996942       6.03497028E-07
  0.203876525      -1.88191328E-03  0.956380069      0.939470112      0.343999505      -7.37157613E-02  0.299996972       6.03497028E-07
  0.214070454      -1.97069068E-03  0.956380069      0.939470112      0.343193084      -7.73831904E-02  0.299996942       6.03497028E-07
  0.224264458      -2.04904471E-03  0.956380069      0.939470112      0.342347592      -8.10418278E-02  0.299996942       6.03497028E-07
  0.234458551      -2.11525219E-03  0.956380069      0.939470112      0.341463119      -8.46912637E-02  0.299996972       6.03497028E-07
  0.244652733      -2.16741930E-03  0.956380069      0.939470112      0.340539694      -8.83310735E-02  0.299996942       6.03497028E-07
  0.254846990      -2.20344099E-03  0.956380069      0.939470112      0.339577466      -9.19608623E-02  0.299996942       6.03497028E-07
  0.265041292      -2.22095218E-03  0.956380069      0.939470112      0.338576615      -9.55801755E-02  0.299997002       6.03497028E-07
  0.275235593      -2.21726228E-03  0.956380069      0.939470112      0.337537080      -9.91886109E-02  0.299996942       6.03497028E-07
  0.285429865      -2.18927371E-03  0.956380069      0.939470112      0.336459160     -0.102785744      0.299996972       6.03497028E-07
  0.295624018      -2.13337177E-03  0.956380069      0.939470112      0.335342914     -0.106371120      0.299997002       6.03497028E-07
  0.305817962      -2.04527588E-03  0.956380069      0.939470112      0.334188461     -0.109944306      0.299996972       6.03497028E-07
  0.316011488      -1.91983546E-03  0.956380069      0.939470112      0.332995981     -0.113504842      0.299996972       6.03497028E-07
  0.326204360      -1.75073801E-03  0.956380069      0.939470112      0.331765622     -0.117052250      0.299996942       6.03497028E-07
  0.336396307      -1.53008103E-03  0.956380069      0.939470112      0.330497652     -0.120586000      0.299997002       6.03497028E-07
  0.346586645      -1.24772848E-03  0.956380069      0.939470112      0.329192162     -0.124105535      0.299996942       6.03497028E-07
  0.356774658      -8.90274358E-04  0.956380069      0.939470112      0.327849537     -0.127610162      0.299996972       6.03497028E-07
  0.366958946      -4.39326104E-04  0.956380069      0.939470112      0.326470047     -0.131099090      0.299996942       6.03497028E-07
  0.377137065       1.33766516E-04  0.956380069      0.939470112      0.325054348     -0.134570956      0.299996972       6.03497028E-07
  0.387299746       9.32033930E-04  0.956380069      0.939470112      0.323603719     -0.138022915      0.299997002       6.03497028E-07
  0.397434235       2.03104783E-03  0.956380069      0.939470112      0.322120190     -0.141450673      0.299997032       6.03497028E-07
  0.407523632       3.48527054E-03  0.956380069      0.939470112      0.320606649     -0.144848511      0.299997032       6.03497028E-07
  0.417543113       5.36030158E-03  0.956380069      0.939470112      0.319067359     -0.148208529      0.299997061       6.03497028E-07
  0.427456856       7.73026003E-03  0.956380069      0.939470112      0.317508429     -0.151519731      0.299997151       6.03497028E-07
  0.437217921       1.06651187E-02  0.956380069      0.939470112      0.315937847     -0.154768154      0.299997240       6.03497028E-07
  0.446780443       1.41935814E-02  0.956380069      0.939470112      0.314363867     -0.157940909      0.299997330       6.03497028E-07
  0.456144422       1.82216074E-02  0.956380069      0.939470112      0.312788635     -0.161038280      0.299997419       6.03497028E-07
  0.465438336       2.24102195E-02  0.956380069      0.939470112      0.311196744     -0.164093420      0.299997449       6.03497028E-07
  0.474928796       2.61229333E-02  0.956380069      0.939470112      0.309552848     -0.167173505      0.299997300       6.03497028E-07
  0.484786808       2.86871437E-02  0.956380069      0.939470112      0.307825923     -0.170331970      0.299997091       6.03497028E-07
  0.494905144       2.98680626E-02  0.956380069      0.939470112      0.306017756     -0.173559263      0.299997002       6.03497028E-07
  0.505094886       2.98680626E-02  0.956380069      0.939470112      0.304154396     -0.176804379      0.299997002       6.03497028E-07
  0.515213192       2.86871418E-02  0.956380069      0.939470112      0.302265167     -0.180015340      0.299997061       6.03497028E-07
  0.525071204       2.61229314E-02  0.956380069      0.939470112      0.300381750     -0.183141142      0.299997211       6.03497028E-07
  0.534561634       2.24102195E-02  0.956380069      0.939470112      0.298526108     -0.186150983      0.299997389       6.03497028E-07
  0.543855608       1.82216056E-02  0.956380069      0.939470112      0.296683639     -0.189073756      0.299997449       6.03497028E-07
  0.553219557       1.41935805E-02  0.956380069      0.939470112      0.294813186     -0.191977069      0.299997389       6.03497028E-07
  0.562782109       1.06651178E-02  0.956380069      0.939470112      0.292882949     -0.194909006      0.299997300       6.03497028E-07
  0.572543144       7.73025956E-03  0.956380069      0.939470112      0.290884048     -0.197879568      0.299997211       6.03497028E-07
  0.582456887       5.36030112E-03  0.956380069      0.939470112      0.288821429     -0.200877994      0.299997121       6.03497028E-07
  0.592476368       3.48527008E-03  0.956380069      0.939470112      0.286703229     -0.203889653      0.299997061       6.03497028E-07