 title = "grid"
                                   variables = "x","y","rho","P","u","v","M","S"
 zone n=        3000  e =        5742  et=quadrilateral, f=fepoint
   0.00000000       0.00000000      0.961088717      0.945951998      0.333528668      -5.25880489E-04  0.284129858       4.97326255E-07
   1.00000000       0.00000000      0.963780522      0.961674154      0.582283139      -1.19338296E-02  0.492761195       1.25687588E-02
   1.00000000      0.300000012      0.932003140      0.932637334     -0.409678876       7.75352819E-05  0.346124113       2.88478453E-02
   0.00000000      0.300000012      0.951286912      0.932473779      0.370903760       5.04018040E-04  0.316617608       1.12317502E-06
   1.00000000       1.03448275E-02  0.965641558      0.961230099      0.581499815      -3.53070311E-02  0.493490607       9.40617174E-03
   1.00000000       2.06896551E-02  0.967730999      0.961493909      0.572858036      -6.56972155E-02  0.488904893       6.65454566E-03
   1.00000000       3.10344826E-02  0.968584955      0.961368680      0.561517954      -9.47857797E-02  0.483086050       5.28939161E-03
   1.00000000       4.13793102E-02  0.969047785      0.961070120      0.547525764     -0.121732727      0.476006240       4.30999324E-03
   1.00000000       5.17241396E-02  0.969393730      0.960861623      0.530789196     -0.145746827      0.467263818       3.59335635E-03
   1.00000000       6.20689653E-02  0.969963968      0.961141825      0.511048138     -0.166173428      0.456253767       3.06162238E-03
   1.00000000       7.24137947E-02  0.971184552      0.962439775      0.487514615     -0.182679430      0.441996247       2.65048631E-03
   1.00000000       8.27586204E-02  0.973327875      0.965078413      0.458434463     -0.195564494      0.423025697       2.30204035E-03
   1.00000000       9.31034461E-02  0.975897312      0.968304753      0.421054870     -0.206129983      0.397761673       1.94866769E-03
   1.00000000      0.103448279      0.977000475      0.969429553      0.372875094     -0.216682807      0.365903795       1.52793806E-03
   1.00000000      0.113793105      0.974077046      0.964912713      0.314778805     -0.229306802      0.330700338       1.05317216E-03
   1.00000000      0.124137931      0.966703475      0.954310060      0.253759503     -0.243453547      0.299129099       6.42189756E-04
   1.00000000      0.134482756      0.958114326      0.942243159      0.199841663     -0.255680531      0.276564449       4.11499292E-04
   1.00000000      0.144827589      0.951963723      0.933745921      0.158263832     -0.263320982      0.262170732       3.68768349E-04
   1.00000000      0.155172408      0.949067771      0.929826856      0.127049252     -0.266594350      0.252160370       4.28184867E-04
   1.00000000      0.165517241      0.948321998      0.928895533      0.101896971     -0.267343760      0.244317666       5.26629388E-04
   1.00000000      0.175862074      0.948525250      0.929286063       7.96375647E-02 -0.267060608      0.237954661       6.46926463E-04
   1.00000000      0.186206892      0.948968410      0.930027902       5.84910139E-02 -0.266340405      0.232797831       7.91009516E-04
   1.00000000      0.196551725      0.949304640      0.930656254       3.73572633E-02 -0.265015781      0.228448540       9.70432535E-04
   1.00000000      0.206896558      0.949325085      0.930905640       1.52049745E-02 -0.262104094      0.224075302       1.20820291E-03
   1.00000000      0.217241377      0.948872626      0.930641472      -9.45445336E-03 -0.255432606      0.218133509       1.59180351E-03
   1.00000000      0.227586210      0.947877645      0.930005133      -3.85567360E-02 -0.241807193      0.208925113       2.37664953E-03
   1.00000000      0.237931028      0.946158826      0.929204583      -7.49602020E-02 -0.217878148      0.196502626       4.05644439E-03
   1.00000000      0.248275861      0.943575203      0.928565562     -0.122671366     -0.180858165      0.186183304       7.19656609E-03
   1.00000000      0.258620679      0.940454483      0.928500891     -0.184171662     -0.131510988      0.192490593       1.17648840E-02
   1.00000000      0.268965513      0.937649548      0.929293454     -0.255719602      -7.78274685E-02  0.226923674       1.67999361E-02
   1.00000000      0.279310346      0.935521126      0.930812478     -0.326466113      -3.34567241E-02  0.278059989       2.16147099E-02
   1.00000000      0.289655179      0.933022022      0.932383358     -0.388442189      -7.83454906E-03  0.328472793       2.70458590E-02
  0.989898980      0.300000012      0.932825863      0.933939755     -0.401313931      -3.99066322E-03  0.338986635       2.90081054E-02
  0.979797959      0.300000012      0.935313523      0.938256204     -0.375591129      -1.06019070E-02  0.317060530       2.98906155E-02
  0.969696999      0.300000012      0.938053668      0.943106890     -0.329928011      -1.86464284E-02  0.278535813       3.09517458E-02
  0.959595978      0.300000012      0.941981137      0.945953608     -0.267657906      -2.45081726E-02  0.226681083       2.81162914E-02
  0.949494958      0.300000012      0.945591688      0.944424927     -0.199483588      -2.53088884E-02  0.170050815       2.11431384E-02
  0.939393938      0.300000012      0.944494247      0.937992394     -0.136040792      -2.17955466E-02  0.116844572       1.59344785E-02
  0.929292917      0.300000012      0.938539445      0.927716970      -8.23528469E-02  -1.68109611E-02   7.14493543E-02   1.37739889E-02
  0.919191897      0.300000012      0.929708004      0.914686918      -3.77090983E-02  -1.25465784E-02   3.38624306E-02   1.28651410E-02
  0.909090936      0.300000012      0.917826951      0.897889018       2.30575842E-03  -1.00212572E-02   8.78676586E-03   1.23361740E-02
  0.898989916      0.300000012      0.900742769      0.874206483       4.35115099E-02  -9.18693002E-03   3.81508470E-02   1.19111203E-02
  0.888888896      0.300000012      0.877253115      0.842084646       8.98703486E-02  -8.78455769E-03   7.78936148E-02   1.14688538E-02
  0.878787875      0.300000012      0.848742187      0.803605914      0.140499890      -7.69431889E-03  0.122216143       1.09534040E-02
  0.868686855      0.300000012      0.821001053      0.766652882      0.188137084      -5.50691970E-03  0.164614782       1.04020685E-02
  0.858585835      0.300000012      0.800694942      0.739909649      0.224017888      -2.99147284E-03  0.196970671       9.95811075E-03
  0.848484874      0.300000012      0.789842188      0.725698531      0.245694816      -1.15305407E-03  0.216635078       9.67034698E-03
  0.838383853      0.300000012      0.785888612      0.720468938      0.257150650      -1.99332600E-04  0.226984710       9.46326554E-03
  0.828282833      0.300000012      0.785476387      0.719805837      0.263403922       1.85009761E-04  0.232550472       9.27706063E-03
  0.818181813      0.300000012      0.786482275      0.720964909      0.267583966       3.12455435E-04  0.236202091       9.09435749E-03
  0.808080792      0.300000012      0.787961721      0.722732186      0.271070629       3.48903006E-04  0.239211828       8.91152024E-03
  0.797979772      0.300000012      0.789583683      0.724682868      0.274343848       3.58835940E-04  0.242023006       8.72811675E-03
  0.787878811      0.300000012      0.791253090      0.726695240      0.277540296       3.62343912E-04  0.244761989       8.54423642E-03
  0.777777791      0.300000012      0.792946994      0.728740156      0.280691773       3.64512525E-04  0.247458145       8.36039335E-03
  0.767676771      0.300000012      0.794660747      0.730811715      0.283803731       3.66555905E-04  0.250116646       8.17654282E-03
  0.757575750      0.300000012      0.796393454      0.732908666      0.286876351       3.68781883E-04  0.252737701       7.99247622E-03
  0.747474730      0.300000012      0.798145056      0.735031009      0.289909214       3.71208735E-04  0.255320936       7.80825317E-03
  0.737373710      0.300000012      0.799915314      0.737178683      0.292901576       3.73993447E-04  0.257865757       7.62418658E-03
  0.727272749      0.300000012      0.801704586      0.739352286      0.295852900       3.77104152E-04  0.260371596       7.44036585E-03
  0.717171729      0.300000012      0.803513288      0.741552293      0.298762828       3.80668440E-04  0.262838244       7.25653768E-03
  0.707070708      0.300000012      0.805341780      0.743779302      0.301631212       3.84572631E-04  0.265265465       7.07300752E-03
  0.696969688      0.300000012      0.807190418      0.746034026      0.304457515       3.88775690E-04  0.267652750       6.88984990E-03
  0.686868668      0.300000012      0.809059322      0.748316407      0.307241082       3.93195980E-04  0.269999653       6.70689344E-03
  0.676767647      0.300000012      0.810948551      0.750626683      0.309981227       3.97675409E-04  0.272305489       6.52408600E-03
  0.666666687      0.300000012      0.812858045      0.752964854      0.312677771       4.01896337E-04  0.274570167       6.34154677E-03
  0.656565666      0.300000012      0.814788043      0.755330920      0.315331548       4.05389117E-04  0.276794493       6.15889579E-03
  0.646464646      0.300000012      0.816739023      0.757725298      0.317945331       4.07463376E-04  0.278980970       5.97554445E-03
  0.636363626      0.300000012      0.818711460      0.760148406      0.320524246       4.07069689E-04  0.281134039       5.79139590E-03
  0.626262605      0.300000012      0.820705652      0.762600064      0.323075831       4.03102080E-04  0.283260584       5.60554117E-03
  0.616161644      0.300000012      0.822721720      0.765080333      0.325609654       3.94860137E-04  0.285368830       5.41776419E-03
  0.606060624      0.300000012      0.824759483      0.767589092      0.328134328       3.82871134E-04  0.287466526       5.22815436E-03
  0.595959604      0.300000012      0.826818407      0.770125985      0.330657452       3.67234403E-04  0.289560109       5.03706932E-03
  0.585858583      0.300000012      0.828897297      0.772689939      0.333185464       3.48383357E-04  0.291655391       4.84517217E-03
  0.575757563      0.300000012      0.830994308      0.775279880      0.335721374       3.28310678E-04  0.293754786       4.65406477E-03
  0.565656543      0.300000012      0.833107173      0.777896106      0.338260829       3.10857984E-04  0.295854032       4.46789712E-03
  0.555555582      0.300000012      0.835234165      0.780540109      0.340787172       3.01539694E-04  0.297937989       4.29124385E-03
  0.545454562      0.300000012      0.837375164      0.783216059      0.343268782       3.06230359E-04  0.299978226       4.12961096E-03
  0.535353541      0.300000012      0.839532614      0.785928845      0.345663428       3.27749847E-04  0.301937312       3.98495793E-03
  0.525252521      0.300000012      0.841710091      0.788681030      0.347931892       3.62009450E-04  0.303781301       3.85417044E-03
  0.515151501      0.300000012      0.843909085      0.791469932      0.350054502       3.99470737E-04  0.305493921       3.73133272E-03
  0.505050480      0.300000012      0.846127570      0.794286549      0.352038056       4.30946006E-04  0.307082653       3.60818952E-03
  0.494949490      0.300000012      0.848361075      0.797122538      0.353905082       4.54169465E-04  0.308568060       3.48163396E-03
  0.484848499      0.300000012      0.850605547      0.799972653      0.355680257       4.70670639E-04  0.309972137       3.35170329E-03
  0.474747479      0.300000012      0.852854908      0.802830935      0.357391685       4.79782640E-04  0.311319530       3.22104990E-03
  0.464646459      0.300000012      0.855099738      0.805685639      0.359078586       4.76906629E-04  0.312644988       3.09036672E-03
  0.454545468      0.300000012      0.857331693      0.808525920      0.360779583       4.63935547E-04  0.313982695       2.96004117E-03
  0.444444448      0.300000012      0.859547198      0.811347067      0.362515688       4.46941238E-04  0.315351307       2.83002108E-03
  0.434343427      0.300000012      0.861747801      0.814151406      0.364286512       4.31412482E-04  0.316750169       2.70073116E-03
  0.424242437      0.300000012      0.863938987      0.816946268      0.366077125       4.20309923E-04  0.318165928       2.57238001E-03
  0.414141417      0.300000012      0.866128266      0.819742322      0.367866576       4.14295879E-04  0.319579571       2.44598836E-03
  0.404040396      0.300000012      0.868325174      0.822552562      0.369632721       4.12889203E-04  0.320971131       2.32169032E-03
  0.393939406      0.300000012      0.870539665      0.825390100      0.371355414       4.15193790E-04  0.322322577       2.19953805E-03
  0.383838385      0.300000012      0.872780979      0.828267455      0.373017192       4.20360884E-04  0.323617846       2.07968801E-03
  0.373737365      0.300000012      0.875055611      0.831194162      0.374605238       4.27112682E-04  0.324845374       1.96313113E-03
  0.363636374      0.300000012      0.877367675      0.834175229      0.376112998       4.34244255E-04  0.325999409       1.84902549E-03
  0.353535354      0.300000012      0.879715741      0.837209463      0.377540678       4.40546399E-04  0.327080131       1.73801929E-03
  0.343434334      0.300000012      0.882094443      0.840289533      0.378895581       4.44873876E-04  0.328094423       1.62982941E-03
  0.333333343      0.300000012      0.884496391      0.843406320      0.380188048       4.47249709E-04  0.329051852       1.52509660E-03
  0.323232323      0.300000012      0.886914730      0.846550226      0.381427914       4.48052015E-04  0.329961509       1.42327696E-03
  0.313131303      0.300000012      0.889343917      0.849713862      0.382622570       4.47787985E-04  0.330830365       1.32410228E-03
  0.303030312      0.300000012      0.891779423      0.852892339      0.383776844       4.46970749E-04  0.331662744       1.22910365E-03
  0.292929292      0.300000012      0.894219875      0.856082976      0.384892642       4.45960148E-04  0.332460582       1.13701448E-03
  0.282828271      0.300000012      0.896664143      0.859285116      0.385970354       4.44912934E-04  0.333224148       1.04895979E-03
  0.272727281      0.300000012      0.899112642      0.862498522      0.387009323       4.43951023E-04  0.333953172       9.63918865E-04
  0.262626261      0.300000012      0.901565373      0.865723729      0.388007998       4.43136174E-04  0.334646165       8.82335007E-04
  0.252525240      0.300000012      0.904022157      0.868960798      0.388964355       4.42237972E-04  0.335301489       8.04718584E-04
  0.242424250      0.300000012      0.906481802      0.872208059      0.389875233       4.40969801E-04  0.335916549       7.30801374E-04
  0.232323229      0.300000012      0.908941448      0.875461042      0.390735269       4.38834279E-04  0.336487085       6.59845769E-04
  0.222222224      0.300000012      0.911393940      0.878711104      0.391535521       4.35123715E-04  0.337005824       5.92932105E-04
  0.212121218      0.300000012      0.913828909      0.881943643      0.392261714       4.29199281E-04  0.337461472       5.29520214E-04
  0.202020198      0.300000012      0.916231692      0.885139048      0.392894506       4.20976226E-04  0.337838471       4.69852239E-04
  0.191919193      0.300000012      0.918585539      0.888274133      0.393410981       4.10855457E-04  0.338118553       4.13484871E-04
  0.181818187      0.300000012      0.920875013      0.891328275      0.393788129       4.00411547E-04  0.338283122       3.60891223E-04
  0.171717167      0.300000012      0.923088551      0.894285560      0.394006878       3.91850335E-04  0.338316798       3.12007964E-04
  0.161616161      0.300000012      0.925221443      0.897139430      0.394054741       3.87609325E-04  0.338209361       2.67092139E-04
  0.151515156      0.300000012      0.927275360      0.899891436      0.393925846       3.89498775E-04  0.337955862       2.25447118E-04
  0.141414136      0.300000012      0.929255962      0.902549207      0.393619090       3.98794800E-04  0.337555051       1.87411904E-04
  0.131313130      0.300000012      0.931170762      0.905123055      0.393134594       4.16139606E-04  0.337006569       1.53288245E-04
  0.121212125      0.300000012      0.933027267      0.907622755      0.392470658       4.41908749E-04  0.336308539       1.22729689E-04
  0.111111112      0.300000012      0.934830964      0.910055935      0.391621798       4.76436486E-04  0.335456103       9.61795449E-05
  0.101010099      0.300000012      0.936586797      0.912429094      0.390577853       5.20556991E-04  0.334440172       7.34440982E-05
   9.09090936E-02  0.300000012      0.938298047      0.914746344      0.389323592       5.75388374E-04  0.333247781       5.41843474E-05
   8.08080807E-02  0.300000012      0.939967155      0.917011201      0.387839258       6.41899591E-04  0.331861913       3.88473272E-05
   7.07070678E-02  0.300000012      0.941596031      0.919225991      0.386102647       7.20217766E-04  0.330263585       2.72355974E-05
   6.06060624E-02  0.300000012      0.943186104      0.921392500      0.384096086       8.06680473E-04  0.328437865       1.91181898E-05
   5.05050495E-02  0.300000012      0.944737375      0.923510313      0.381822824       8.89810442E-04  0.326387674       1.43051147E-05
   4.04040404E-02  0.300000012      0.946246922      0.925573885      0.379334062       9.45996318E-04  0.324157357       1.10641122E-05
   3.03030312E-02  0.300000012      0.947706878      0.927571118      0.376754969       9.42544313E-04  0.321854621       8.18260014E-06
   2.02020202E-02  0.300000012      0.949102581      0.929481566      0.374284655       8.52160738E-04  0.319650441       5.46313822E-06
   1.01010101E-02  0.300000012      0.950408161      0.931269705      0.372161329       6.64753548E-04  0.317749768       2.91503966E-06
   0.00000000      0.289655179      0.951424062      0.932661772      0.370387822       8.88760667E-04  0.316168755       9.35047865E-07
   0.00000000      0.279310346      0.951633990      0.932950079      0.369489908       1.21694442E-03  0.315389097       1.06915832E-06
   0.00000000      0.268965513      0.951949418      0.933383048      0.368159473       1.42982963E-03  0.314233333       1.11013651E-06
   0.00000000      0.258620679      0.952341378      0.933921158      0.366522074       1.55528518E-03  0.312810421       1.19023025E-06
   0.00000000      0.248275861      0.952787459      0.934533656      0.364671618       1.61069748E-03  0.311202228       1.17160380E-06
   0.00000000      0.237931028      0.953270733      0.935197413      0.362682462       1.60586578E-03  0.309473366       1.20885670E-06
   0.00000000      0.227586210      0.953778088      0.935894072      0.360619485       1.54634425E-03  0.307680160       9.38773155E-07
   0.00000000      0.217241377      0.954298794      0.936609387      0.358548731       1.43504306E-03  0.305879653       8.51228833E-07
   0.00000000      0.206896558      0.954823017      0.937329590      0.356544822       1.27672346E-03  0.304136217       7.13393092E-07
   0.00000000      0.196551725      0.955338717      0.938038170      0.354691327       1.08329440E-03  0.302522033       4.30271029E-07
   0.00000000      0.186206892      0.955830038      0.938713491      0.353065401       8.78697843E-04  0.301103860       2.96160579E-07
   0.00000000      0.175862074      0.956280172      0.939332247      0.351711363       6.97813928E-04  0.299920529       1.11758709E-08
   0.00000000      0.165517241      0.956678689      0.939880192      0.350615978       5.76206658E-04  0.298961371      -8.00937414E-08
   0.00000000      0.155172408      0.957028091      0.940360785      0.349704117       5.35884348E-04  0.298162043      -1.30385160E-07
   0.00000000      0.144827589      0.957344532      0.940796435      0.348864257       5.76893915E-04  0.297426313       2.34693289E-07
   0.00000000      0.134482756      0.957650661      0.941217721      0.347986311       6.79744466E-04  0.296658963       3.12924385E-07
   0.00000000      0.124137931      0.957966030      0.941651762      0.346991748       8.15581880E-04  0.295791864       3.81842256E-07
   0.00000000      0.113793105      0.958300591      0.942112565      0.345845222       9.56077245E-04  0.294794172       7.72997737E-07
   0.00000000      0.103448279      0.958655536      0.942601442      0.344548941       1.07932114E-03  0.293667763       1.11572444E-06
   0.00000000       9.31034461E-02  0.959024906      0.943110049      0.343130589       1.16967084E-03  0.292436570       1.23120844E-06
   0.00000000       8.27586204E-02  0.959399521      0.943625987      0.341632158       1.21715583E-03  0.291136920       1.37463212E-06
   0.00000000       7.24137947E-02  0.959768593      0.944134355      0.340102673       1.21427176E-03  0.289811224       1.50129199E-06
   0.00000000       6.20689653E-02  0.960121334      0.944620073      0.338594556       1.15501089E-03  0.288504750       1.38022006E-06
   0.00000000       5.17241396E-02  0.960446060      0.945067346      0.337162882       1.03337166E-03  0.287265122       1.32247806E-06
   0.00000000       4.13793102E-02  0.960731208      0.945459962      0.335864604       8.43079179E-04  0.286141574       1.13435090E-06
   0.00000000       3.10344826E-02  0.960964262      0.945781052      0.334759384       5.77182393E-04  0.285185695       1.05984509E-06
   0.00000000       2.06896551E-02  0.961132467      0.946012616      0.333910137       2.27041251E-04  0.284451902       8.92207026E-07
   0.00000000       1.03448275E-02  0.961221218      0.946134984      0.333381861      -2.20215516E-04  0.283996612       9.55536962E-07
   1.01942774E-02  -1.06002917E-05  0.961761653      0.946880639      0.332715511      -5.62553061E-04  0.283397347       1.85146928E-06
   2.03885511E-02  -4.05888240E-05  0.963393271      0.949132681      0.330743790      -9.58247343E-04  0.281622797       4.32506204E-06
   3.05827484E-02  -8.74972393E-05  0.965152204      0.951562822      0.328195065      -1.30516081E-03  0.279351264       7.67037272E-06
   4.07768898E-02  -1.49138228E-04  0.967015266      0.954139471      0.325195491      -1.62005203E-03  0.276691973       1.20066106E-05
   5.09709269E-02  -2.23550553E-04  0.968973577      0.956849635      0.321917683      -1.93333614E-03  0.273793250       1.60895288E-05
   6.11648858E-02  -3.08956922E-04  0.971025288      0.959692597      0.318561047      -2.26185657E-03  0.270825058       2.16476619E-05
   7.13587478E-02  -4.03728453E-04  0.973173559      0.962673306      0.315299600      -2.59870198E-03  0.267935216       2.88151205E-05
   8.15525427E-02  -5.06357115E-04  0.975422680      0.965798795      0.312241584      -2.92126089E-03  0.265215427       3.84086743E-05
   9.17462707E-02  -6.15430705E-04  0.977775991      0.969075143      0.309423625      -3.20629706E-03  0.262696147       5.14257699E-05
  0.101939946      -7.29613879E-04  0.980236709      0.972507536      0.306834251      -3.44078219E-03  0.260367095       6.82584941E-05
  0.112133577      -8.47629446E-04  0.982808530      0.976101816      0.304441959      -3.62130487E-03  0.258201122       8.89813527E-05
  0.122327171      -9.68243345E-04  0.985496581      0.979865611      0.302214026      -3.75048886E-03  0.256170034       1.13650225E-04
  0.132520750      -1.09024998E-03  0.988308489      0.983809292      0.300123900      -3.83232883E-03  0.254251033       1.41337980E-04
  0.142714337      -1.21245917E-03  0.991253912      0.987948060      0.298153132      -3.87062784E-03  0.252427906       1.73259526E-04
  0.152907923      -1.33368257E-03  0.994345665      0.992300272      0.296289116      -3.86798987E-03  0.250689298       2.09021149E-04
  0.163101539      -1.45272142E-03  0.997597754      0.996886194      0.294521600      -3.82590061E-03  0.249026030       2.48505035E-04
  0.173295200      -1.56835280E-03   1.00102174       1.00172317      0.292837232      -3.74429976E-03  0.247426182       2.91978533E-04
  0.183488905      -1.67931605E-03   1.00462377       1.00682139      0.291213572      -3.62212746E-03  0.245870650       3.39848688E-04
  0.193682685      -1.78429752E-03   1.00840414       1.01218212      0.289616108      -3.45807476E-03  0.244330481       3.91907990E-04
  0.203876525      -1.88191328E-03   1.01235974       1.01780224      0.287997991      -3.25086270E-03  0.242766529       4.48127743E-04
  0.214070454      -1.97069068E-03   1.01649177       1.02368486      0.286302090      -3.00002075E-03  0.241131067       5.08558005E-04
  0.224264458      -2.04904471E-03   1.02081525       1.02985299      0.284459770      -2.70605204E-03  0.239366010       5.73839061E-04
  0.234458551      -2.11525219E-03   1.02537143       1.03636706      0.282384127      -2.37046741E-03  0.237397090       6.44547865E-04
  0.244652733      -2.16741930E-03   1.03024042       1.04334235      0.279957056      -1.99540425E-03  0.235122547       7.20307231E-04
  0.254846990      -2.20344099E-03   1.03555000       1.05096400      0.277012825      -1.58311171E-03  0.232399166       8.02058727E-04
  0.265041292      -2.22095218E-03   1.04148304       1.05949712      0.273326427      -1.13476522E-03  0.229032755       8.90389085E-04
  0.275235593      -2.21726228E-03   1.04826701       1.06927514      0.268616974      -6.48110406E-04  0.224782184       9.87382606E-04
  0.285429865      -2.18927371E-03   1.05614269       1.08065355      0.262581259      -1.12984962E-04  0.219390512       1.09337643E-03
  0.295624018      -2.13337177E-03   1.06528139       1.09389508      0.254978806       4.96115477E-04  0.212659702       1.21025369E-03
  0.305817962      -2.04527588E-03   1.07564366       1.10896468      0.245787308       1.22819643E-03  0.204586133       1.33989751E-03
  0.316011488      -1.91983546E-03   1.08680761       1.12527025      0.235394329       2.15687230E-03  0.195523128       1.48082152E-03
  0.326204360      -1.75073801E-03   1.09788835       1.14153600      0.224697515       3.35719320E-03  0.186258897       1.63053349E-03
  0.336396307      -1.53008103E-03   1.10771012       1.15604019      0.214940518       4.87098005E-03  0.177865759       1.78762153E-03
  0.346586645      -1.24772848E-03   1.11522210       1.16722369      0.207277492       6.69453712E-03  0.171323970       1.95306167E-03
  0.356774658      -8.90274358E-04   1.11990535       1.17429960      0.202325433       8.81579984E-03  0.167147383       2.13003159E-03
  0.366958946      -4.39326104E-04   1.12188983       1.17744410      0.199999243       1.12978052E-02  0.165257469       2.32560933E-03
  0.377137065       1.33766516E-04   1.12176645       1.17752373      0.199704543       1.47011699E-02  0.165182441       2.54724175E-03
  0.387299746       9.32033930E-04   1.12018383       1.17550468      0.201107427       1.96968690E-02  0.166713074       2.80769169E-03
  0.397434235       2.03104783E-03   1.11760879       1.17210233      0.203989327       2.61465050E-02  0.169724315       3.13112885E-03
  0.407523632       3.48527054E-03   1.11438513       1.16785240      0.208086923       3.41303423E-02  0.174088076       3.54252011E-03
  0.417543113       5.36030158E-03   1.11070144       1.16304719      0.213433072       4.41062562E-02  0.180002436       4.05501202E-03
  0.427456856       7.73026003E-03   1.10656536       1.15769994      0.220572159       5.66565432E-02  0.188170403       4.66988981E-03
  0.437217921       1.06651187E-02   1.10178554       1.15152395      0.230800778       7.23222941E-02  0.199951276       5.38136438E-03
  0.446780443       1.41935814E-02   1.09590161       1.14381588      0.246582925       9.09219980E-02  0.217414379       6.16155565E-03
  0.456144422       1.82216074E-02   1.08812869       1.13337040      0.271659851      0.109630294      0.242593437       6.95271790E-03
  0.465438336       2.24102195E-02   1.07783020       1.11918294      0.308703691      0.120111480      0.274734318       7.66900927E-03
  0.474928796       2.61229333E-02   1.06622767       1.10297740      0.352471977      0.110389605      0.306916624       8.23568925E-03
  0.484786808       2.86871437E-02   1.05727303       1.09046197      0.388385624       7.70998001E-02  0.329519004       8.63119215E-03
  0.494905144       2.98680626E-02   1.05447412       1.08670175      0.405718029       3.28336135E-02  0.338875800       8.88815522E-03
  0.505094886       2.98680626E-02   1.05764639       1.09136629      0.405809134      -1.08322669E-02  0.337751627       8.96595418E-03
  0.515213192       2.86871418E-02   1.06453037       1.10126197      0.391667008      -5.51923551E-02  0.328667253       8.90957564E-03
  0.525071204       2.61229314E-02   1.07441092       1.11541235      0.363495141      -9.67643708E-02  0.312010705       8.74258205E-03
  0.534561634       2.24102195E-02   1.08780611       1.13430583      0.326822817     -0.121109284      0.288469672       8.19273293E-03
  0.543855608       1.82216056E-02   1.10356486       1.15596759      0.291492283     -0.121156521      0.260671467       6.97377324E-03
  0.553219557       1.41935805E-02   1.11855495       1.17587602      0.264062107     -0.105022810      0.234249249       5.16079366E-03
  0.562782109       1.06651178E-02   1.13045681       1.19117010      0.245552450      -8.46943781E-02  0.213859558       3.26560438E-03
  0.572543144       7.73025956E-03   1.13895023       1.20215547      0.233669311      -6.63357824E-02  0.199820742       1.96640939E-03
  0.582456887       5.36030112E-03   1.14475763       1.21023130      0.225799069      -5.13811149E-02  0.190345764       1.54139102E-03
  0.592476368       3.48527008E-03   1.14884079       1.21654367      0.220325232      -3.95853668E-02  0.183850646       1.75898522E-03