 title = "grid"
                                   variables = "x","y","rho","P","u","v","M","S"
 zone n=        3000  e =        5742  et=quadrilateral, f=fepoint
   0.00000000       0.00000000      0.979625106      0.971597433      0.234010771       3.14967823E-04  0.198590741       5.74812293E-06
   1.00000000       0.00000000      0.945015848      0.931065202      0.242886811       1.10045672E-04  0.206809014       7.74903968E-03
   1.00000000      0.300000012      0.947099805      0.934377432      0.394265860       1.86652163E-04  0.335476398       8.21630098E-03
   0.00000000      0.300000012      0.979812205      0.971859515      0.228562668       4.80135030E-04  0.193959892       8.08015466E-06
   1.00000000       1.03448275E-02  0.945630848      0.931208849      0.245469257       3.56025499E-04  0.209059924       6.99247979E-03
   1.00000000       2.06896551E-02  0.946170390      0.931258917      0.249252349       6.09037932E-04  0.212337151       6.24770485E-03
   1.00000000       3.10344826E-02  0.946435273      0.931332409      0.252774924       7.77038687E-04  0.215360045       5.93472086E-03
   1.00000000       4.13793102E-02  0.946565866      0.931430876      0.256139696       8.52022320E-04  0.218230471       5.84731624E-03
   1.00000000       5.17241396E-02  0.946639001      0.931556761      0.259437472       8.31421290E-04  0.221033692       5.87432832E-03
   1.00000000       6.20689653E-02  0.946698964      0.931714594      0.262749165       7.13525340E-04  0.223842934       5.95503673E-03
   1.00000000       7.24137947E-02  0.946774185      0.931910574      0.266144007       4.94499516E-04  0.226719826       6.05412200E-03
   1.00000000       8.27586204E-02  0.946884215      0.932153285      0.269680619       1.66601967E-04  0.229715660       6.15179725E-03
   1.00000000       9.31034461E-02  0.947043121      0.932452142      0.273413539      -2.82065565E-04  0.232877672       6.23742305E-03
   1.00000000      0.103448279      0.947261572      0.932818055      0.277399659      -8.66935938E-04  0.236254737       6.30692393E-03
   1.00000000      0.113793105      0.947548151      0.933259904      0.281705141      -1.60473422E-03  0.239903823       6.35695085E-03
   1.00000000      0.124137931      0.947906196      0.933781385      0.286408126      -2.50832178E-03  0.243892282       6.38672151E-03
   1.00000000      0.134482756      0.948331058      0.934376061      0.291595221      -3.58087523E-03  0.248295188       6.39599375E-03
   1.00000000      0.144827589      0.948806524      0.935023129      0.297348529      -4.80862893E-03  0.253183991       6.38651848E-03
   1.00000000      0.155172408      0.949302673      0.935685277      0.303725839      -6.15432346E-03  0.258609384       6.36252202E-03
   1.00000000      0.165517241      0.949778259      0.936310232      0.310736865      -7.55363423E-03  0.264580786       6.32900931E-03
   1.00000000      0.175862074      0.950185537      0.936838210      0.318324655      -8.91739130E-03  0.271049440       6.29252009E-03
   1.00000000      0.186206892      0.950480223      0.937213242      0.326359689      -1.01401052E-02  0.277903706       6.25861064E-03
   1.00000000      0.196551725      0.950631320      0.937396169      0.334650666      -1.11130653E-02  0.284978122       6.23123720E-03
   1.00000000      0.206896558      0.950627327      0.937373757      0.342971414      -1.17381355E-02  0.292076677       6.21320866E-03
   1.00000000      0.217241377      0.950478256      0.937161565      0.351094484      -1.19385999E-02  0.299002469       6.20644540E-03
   1.00000000      0.227586210      0.950210512      0.936799765      0.358824044      -1.16654243E-02  0.305585980       6.21473230E-03
   1.00000000      0.237931028      0.949860513      0.936344206      0.366019011      -1.08983452E-02  0.311705321       6.24406710E-03
   1.00000000      0.248275861      0.949464798      0.935857594      0.372601748      -9.64467227E-03  0.317293257       6.30757585E-03
   1.00000000      0.258620679      0.949050665      0.935400903      0.378554821      -7.93881714E-03  0.322333962       6.43026643E-03
   1.00000000      0.268965513      0.948627651      0.935030103      0.383908957      -5.84586849E-03  0.326850891       6.65794499E-03
   1.00000000      0.279310346      0.948175371      0.934798777      0.388728440      -3.47614428E-03  0.330890983       7.07816333E-03
   1.00000000      0.289655179      0.947625577      0.934774816      0.393083036      -1.03035348E-03  0.334492713       7.86452368E-03
  0.989898980      0.300000012      0.948672950      0.936442018      0.394403964      -3.13503522E-04  0.335502058       8.09997506E-03
  0.979797959      0.300000012      0.952695370      0.941793203      0.393828094      -6.14375109E-04  0.334766865       7.87455589E-03
  0.969696999      0.300000012      0.957460701      0.948193669      0.392594904      -8.90053285E-04  0.333421618       7.66230654E-03
  0.959595978      0.300000012      0.962987185      0.955672562      0.390693903      -1.16788433E-03  0.331459343       7.46129081E-03
  0.949494958      0.300000012      0.969232082      0.964176238      0.388205051      -1.45259360E-03  0.328954548       7.27045443E-03
  0.939393938      0.300000012      0.976110399      0.973591924      0.385249376      -1.73905340E-03  0.326019317       7.08839670E-03
  0.929292917      0.300000012      0.983514071      0.983774245      0.381954193      -2.01911945E-03  0.322772026       6.91381935E-03
  0.919191897      0.300000012      0.991326571      0.994564354      0.378432423      -2.28526932E-03  0.319318533       6.74527232E-03
  0.909090936      0.300000012      0.999432564       1.00580430      0.374772221      -2.53267889E-03  0.315742671       6.58209901E-03
  0.898989916      0.300000012       1.00772274       1.01734126      0.371034920      -2.75975396E-03  0.312104464       6.42237440E-03
  0.888888896      0.300000012       1.01609361       1.02903116      0.367258281      -2.96738977E-03  0.308442622       6.26605097E-03
  0.878787875      0.300000012       1.02444935       1.04073739      0.363460928      -3.15812719E-03  0.304778814       6.11212850E-03
  0.868686855      0.300000012       1.03270149       1.05233264      0.359649509      -3.33537208E-03  0.301123768       5.95976412E-03
  0.858585835      0.300000012       1.04076898       1.06369829      0.355823845      -3.50223598E-03  0.297481507       5.80793433E-03
  0.848484874      0.300000012       1.04857874       1.07472646      0.351983309      -3.66070052E-03  0.293855011       5.65620512E-03
  0.838383853      0.300000012       1.05606735       1.08532238      0.348130345      -3.81148700E-03  0.290248752       5.50431386E-03
  0.828282833      0.300000012       1.06318080       1.09540284      0.344274610      -3.95409344E-03  0.286672652       5.35091013E-03
  0.818181813      0.300000012       1.06987333       1.10489762      0.340434939      -4.08651866E-03  0.283143461       5.19637018E-03
  0.808080792      0.300000012       1.07610643       1.11374593      0.336640328      -4.20639012E-03  0.279685915       5.03985956E-03
  0.797979772      0.300000012       1.08184493       1.12189245      0.332930595      -4.31104703E-03  0.276333153       4.88198176E-03
  0.787878811      0.300000012       1.08705413       1.12928271      0.329356998      -4.39783884E-03  0.273127735       4.72275540E-03
  0.777777791      0.300000012       1.09169698       1.13585794      0.325981140      -4.46447404E-03  0.270120919       4.56154719E-03
  0.767676771      0.300000012       1.09572828       1.14154947      0.322875828      -4.50896379E-03  0.267373234       4.39959392E-03
  0.757575750      0.300000012       1.09909427       1.14627576      0.320124239      -4.52965405E-03  0.264954269       4.23721224E-03
  0.747474730      0.300000012       1.10173094       1.14994013      0.317818820      -4.52461839E-03  0.262941897       4.07434255E-03
  0.737373710      0.300000012       1.10356593       1.15243435      0.316057473      -4.49096691E-03  0.261418879       3.91120836E-03
  0.727272749      0.300000012       1.10452342       1.15364540      0.314936638      -4.42450261E-03  0.260467380       3.74724716E-03
  0.717171729      0.300000012       1.10453391       1.15347087      0.314540446      -4.31910623E-03  0.260159463       3.58276442E-03
  0.707070708      0.300000012       1.10354817       1.15183914      0.314924896      -4.16633487E-03  0.260543793       3.41704860E-03
  0.696969688      0.300000012       1.10155308       1.14873266      0.316100746      -3.95596493E-03  0.261630744       3.24986875E-03
  0.686868668      0.300000012       1.09858370       1.14420688      0.318020523      -3.67736560E-03  0.263381004       3.08115408E-03
  0.676767647      0.300000012       1.09472716       1.13839483      0.320575535      -3.32192820E-03  0.265702784       2.91200727E-03
  0.666666687      0.300000012       1.09011137       1.13148987      0.323608577      -2.88491091E-03  0.268462360       2.74339318E-03
  0.656565666      0.300000012       1.08488047       1.12370849      0.326941580      -2.36710720E-03  0.271507412       2.57656723E-03
  0.646464646      0.300000012       1.07916343       1.11524379      0.330410630      -1.77460327E-03  0.274697661       2.41247937E-03
  0.636363626      0.300000012       1.07304633       1.10622728      0.333895683      -1.11700594E-03  0.277930558       2.25305557E-03
  0.626262605      0.300000012       1.06656170       1.09671056      0.337333411      -4.05674306E-04  0.281152964       2.09920853E-03
  0.616161644      0.300000012       1.05969357       1.08667696      0.340713412       3.46944231E-04  0.284357935       1.95262581E-03
  0.606060624      0.300000012       1.05239964       1.07607043      0.344057590       1.12610601E-03  0.287567258       1.81376934E-03
  0.595959604      0.300000012       1.04463625       1.06483471      0.347396046       1.91560143E-03  0.290809721       1.68333575E-03
  0.585858583      0.300000012       1.03638387       1.05294812      0.350742906       2.69714347E-03  0.294099689       1.56133249E-03
  0.575757563      0.300000012       1.02766371       1.04044724      0.354081392       3.44876316E-03  0.297423393       1.44742988E-03
  0.565656543      0.300000012       1.01854610       1.02743769      0.357357711       4.14573820E-03  0.300732881       1.34132989E-03
  0.555555582      0.300000012       1.00914669       1.01408803      0.360485971       4.76267096E-03  0.303949594       1.24251377E-03
  0.545454562      0.300000012      0.999615848       1.00061285      0.363360137       5.27731050E-03  0.306974709       1.15063088E-03
  0.535353541      0.300000012      0.990118444      0.987245142      0.365874767       5.67639014E-03  0.309707552       1.06609287E-03
  0.525252521      0.300000012      0.980817497      0.974211037      0.367944539       5.96178789E-03  0.312063456       9.89073887E-04
  0.515151501      0.300000012      0.971863747      0.961716413      0.369510323       6.15273090E-03  0.313979954       9.19841230E-04
  0.505050480      0.300000012      0.963391721      0.949941278      0.370525211       6.27635093E-03  0.315405428       8.58137384E-04
  0.494949490      0.300000012      0.955507696      0.939025164      0.370950490       6.34759152E-03  0.316296220       8.04476440E-04
  0.484848499      0.300000012      0.948279679      0.929052413      0.370776892       6.36766013E-03  0.316636354       7.57986680E-04
  0.474747479      0.300000012      0.941748321      0.920069456      0.370019794       6.35163998E-03  0.316433191       7.18008727E-04
  0.464646459      0.300000012      0.935935020      0.912096918      0.368681699       6.32689102E-03  0.315684944       6.83873892E-04
  0.454545468      0.300000012      0.930833042      0.905117154      0.366751105       6.30113576E-03  0.314380109       6.54585660E-04
  0.444444448      0.300000012      0.926404893      0.899071336      0.364239037       6.25995453E-03  0.312528729       6.28583133E-04
  0.434343427      0.300000012      0.922592342      0.893874109      0.361198992       6.18813094E-03  0.310179412       6.04610890E-04
  0.424242437      0.300000012      0.919328630      0.889430583      0.357715607       6.08151453E-03  0.307408601       5.82464039E-04
  0.414141417      0.300000012      0.916546524      0.885645807      0.353884399       5.94360707E-03  0.304302752       5.61252236E-04
  0.404040396      0.300000012      0.914181530      0.882430136      0.349799722       5.77946519E-03  0.300947517       5.40900975E-04
  0.393939406      0.300000012      0.912175238      0.879702687      0.345548660       5.59335994E-03  0.297422141       5.21101058E-04
  0.383838385      0.300000012      0.910477161      0.877393663      0.341208458       5.38822450E-03  0.293796897       5.01558185E-04
  0.373737365      0.300000012      0.909045696      0.875446558      0.336844951       5.16591780E-03  0.290131688       4.82697040E-04
  0.363636374      0.300000012      0.907849312      0.873817384      0.332511425       4.92804497E-03  0.286475033       4.63750213E-04
  0.353535354      0.300000012      0.906865180      0.872475266      0.328248292       4.67755413E-03  0.282863796       4.45131212E-04
  0.343434334      0.300000012      0.906078517      0.871400237      0.324080676       4.41874424E-03  0.279320985       4.27160412E-04
  0.333333343      0.300000012      0.905480087      0.870579600      0.320021480       4.15459881E-03  0.275858849       4.09886241E-04
  0.323232323      0.300000012      0.905064762      0.870006680      0.316073954       3.88832041E-03  0.272480905       3.93889844E-04
  0.313131303      0.300000012      0.904830515      0.869678557      0.312234640       3.62359104E-03  0.269184798       3.79048288E-04
  0.303030312      0.300000012      0.904777348      0.869595289      0.308495492       3.36422166E-03  0.265964061       3.65596265E-04
  0.292929292      0.300000012      0.904906452      0.869758666      0.304845840       3.11388029E-03  0.262809694       3.53656709E-04
  0.282828271      0.300000012      0.905220032      0.870171607      0.301275194       2.87575833E-03  0.259713054       3.43322754E-04
  0.272727281      0.300000012      0.905721247      0.870838106      0.297774076       2.65243324E-03  0.256666183       3.34005803E-04
  0.262626261      0.300000012      0.906413972      0.871763289      0.294335395       2.44597974E-03  0.253663212       3.25448811E-04
  0.252525240      0.300000012      0.907301486      0.872952104      0.290954798       2.25746329E-03  0.250700504       3.18080187E-04
  0.242424250      0.300000012      0.908387721      0.874409735      0.287630349       2.08749413E-03  0.247776583       3.11370939E-04
  0.232323229      0.300000012      0.909676552      0.876141191      0.284362555       1.93586235E-03  0.244892165       3.04590911E-04
  0.222222224      0.300000012      0.911170304      0.878149867      0.281154037       1.80182804E-03  0.242049769       2.97661871E-04
  0.212121218      0.300000012      0.912870228      0.880437136      0.278008074       1.68436707E-03  0.239252612       2.89384276E-04
  0.202020198      0.300000012      0.914775550      0.883002996      0.274928600       1.58196350E-03  0.236504450       2.80451030E-04
  0.191919193      0.300000012      0.916882932      0.885843873      0.271919370       1.49298401E-03  0.233808875       2.71096826E-04
  0.181818187      0.300000012      0.919187248      0.888953447      0.268983066       1.41598191E-03  0.231168911       2.61202455E-04
  0.171717167      0.300000012      0.921681166      0.892322779      0.266121000       1.34929374E-03  0.228586227       2.50939280E-04
  0.161616161      0.300000012      0.924354732      0.895939946      0.263332397       1.29161426E-03  0.226060882       2.41212547E-04
  0.151515156      0.300000012      0.927196503      0.899790823      0.260614872       1.24162040E-03  0.223591462       2.32681632E-04
  0.141414136      0.300000012      0.930193722      0.903859079      0.257964253       1.19800633E-03  0.221175253       2.25599855E-04
  0.131313130      0.300000012      0.933332980      0.908126950      0.255375475       1.15950441E-03  0.218808755       2.19482929E-04
  0.121212125      0.300000012      0.936600506      0.912576139      0.252843589       1.12448586E-03  0.216488510       2.14032829E-04
  0.111111112      0.300000012      0.939981639      0.917186797      0.250365257       1.09109923E-03  0.214212567       2.08754092E-04
  0.101010099      0.300000012      0.943463147      0.921939909      0.247940227       1.05723785E-03  0.211981565       2.01918185E-04
   9.09090936E-02  0.300000012      0.947032154      0.926815569      0.245572031       1.02079718E-03  0.209799454       1.90468505E-04
   8.08080807E-02  0.300000012      0.950676620      0.931795239      0.243269250       9.79656354E-04  0.207674369       1.71665102E-04
   7.07070678E-02  0.300000012      0.954384029      0.936860979      0.241044432       9.32414550E-04  0.205617636       1.44382939E-04
   6.06060624E-02  0.300000012      0.958140075      0.941995442      0.238911301       8.79450876E-04  0.203641236       1.10937282E-04
   5.05050495E-02  0.300000012      0.961928606      0.947182775      0.236878455       8.24023155E-04  0.201752409       7.78958201E-05
   4.04040404E-02  0.300000012      0.965734482      0.952408373      0.234942660       7.71876716E-04  0.199948192       5.14890999E-05
   3.03030312E-02  0.300000012      0.969544828      0.957657397      0.233090162       7.26696569E-04  0.198217005       3.47811729E-05
   2.02020202E-02  0.300000012      0.973348439      0.962911725      0.231312737       6.83456310E-04  0.196552396       2.49147415E-05
   1.01010101E-02  0.300000012      0.977125943      0.968139291      0.229642332       6.19315775E-04  0.194982618       1.63530931E-05
   0.00000000      0.289655179      0.980041444      0.972176671      0.228265241       3.71735921E-04  0.193698376       6.86664134E-06
   0.00000000      0.279310346      0.980105340      0.972265542      0.227894351       3.54170392E-04  0.193381101       6.97840005E-06
   0.00000000      0.268965513      0.980172098      0.972358167      0.227521628       3.66473076E-04  0.193062201       6.89458102E-06
   0.00000000      0.258620679      0.980244637      0.972458959      0.227121621       3.84829415E-04  0.192719951       6.98864460E-06
   0.00000000      0.248275861      0.980321646      0.972565591      0.226693243       4.00356919E-04  0.192353487       6.61518425E-06
   0.00000000      0.237931028      0.980399907      0.972674131      0.226246282       4.07330925E-04  0.191971198       6.47082925E-06
   0.00000000      0.227586210      0.980475605      0.972779095      0.225796446       4.02382197E-04  0.191586569       6.28922135E-06
   0.00000000      0.217241377      0.980544865      0.972875237      0.225363687       3.82857834E-04  0.191216633       6.20260835E-06
   0.00000000      0.206896558      0.980604231      0.972957551      0.224970266       3.47230904E-04  0.190880492       6.08712435E-06
   0.00000000      0.196551725      0.980650425      0.973021448      0.224639416       2.94938247E-04  0.190597937       5.80493361E-06
   0.00000000      0.186206892      0.980680406      0.973063529      0.224393919       2.26431890E-04  0.190388381       6.25103712E-06
   0.00000000      0.175862074      0.980692923      0.973080933      0.224253833       1.43928570E-04  0.190268993       6.24544919E-06
   0.00000000      0.165517241      0.980686963      0.973072648      0.224236056       5.00726710E-05  0.190254092       6.20260835E-06
   0.00000000      0.155172408      0.980662167      0.973038316      0.224352837      -5.15442844E-05  0.190354139       6.35627657E-06
   0.00000000      0.144827589      0.980618954      0.972978711      0.224610671      -1.56432303E-04  0.190574571       6.80610538E-06
   0.00000000      0.134482756      0.980559170      0.972895682      0.225010157      -2.59935128E-04  0.190915912       6.79679215E-06
   0.00000000      0.124137931      0.980483770      0.972791135      0.225545883      -3.57145880E-04  0.191373527       6.97374344E-06
   0.00000000      0.113793105      0.980394781      0.972667754      0.226206750      -4.43005265E-04  0.191937849       7.24382699E-06
   0.00000000      0.103448279      0.980294406      0.972528577      0.226975769      -5.12983941E-04  0.192594409       7.45616853E-06
   0.00000000       9.31034461E-02  0.980185032      0.972377241      0.227830723      -5.62640838E-04  0.193324208       8.04942101E-06
   0.00000000       8.27586204E-02  0.980069816      0.972217321      0.228745043      -5.87959134E-04  0.194104657       8.14255327E-06
   0.00000000       7.24137947E-02  0.979951560      0.972053289      0.229687691      -5.85431524E-04  0.194909230       8.33813101E-06
   0.00000000       6.20689653E-02  0.979833066      0.971889079      0.230625018      -5.52379934E-04  0.195709243       8.69948417E-06
   0.00000000       5.17241396E-02  0.979717910      0.971729577      0.231522486      -4.86726698E-04  0.196475297       9.06642526E-06
   0.00000000       4.13793102E-02  0.979609787      0.971579671      0.232345581      -3.87244654E-04  0.197177961       9.35979187E-06
   0.00000000       3.10344826E-02  0.979511082      0.971442759      0.233064532      -2.53037782E-04  0.197791904       9.52463597E-06
   0.00000000       2.06896551E-02  0.979424059      0.971322179      0.233657986      -8.09645062E-05  0.198298931       9.70438123E-06
   0.00000000       1.03448275E-02  0.979350746      0.971220434      0.234116554       1.39653173E-04  0.198691100       9.78540629E-06
   1.01942774E-02  -1.06002917E-05  0.978300810      0.969771624      0.234723598       6.76662821E-05  0.199248105       1.86320394E-05
   2.03885511E-02  -4.05888240E-05  0.975317478      0.965659916      0.235869065      -3.74727533E-04  0.200340360       4.56171110E-05
   3.05827484E-02  -8.74972393E-05  0.972540677      0.961841047      0.236573741      -8.32156220E-04  0.201051548       7.46883452E-05
   4.07768898E-02  -1.49138228E-04  0.969933808      0.958259881      0.236942098      -1.25762634E-03  0.201471552       1.02179125E-04
   5.09709269E-02  -2.23550553E-04  0.967464685      0.954867184      0.237011686      -1.62355613E-03  0.201633185       1.23841688E-04
   6.11648858E-02  -3.08956922E-04  0.965099633      0.951612055      0.236774445      -1.91502960E-03  0.201530635       1.35676935E-04
   7.13587478E-02  -4.03728453E-04  0.962802410      0.948443949      0.236211836      -2.13178829E-03  0.201149091       1.37303025E-04
   8.15525427E-02  -5.06357115E-04  0.960535526      0.945315421      0.235317200      -2.28143088E-03  0.200483382       1.33430585E-04
   9.17462707E-02  -6.15430705E-04  0.958265781      0.942184985      0.234098747      -2.37229560E-03  0.199541047       1.28487125E-04
  0.101939946      -7.29613879E-04  0.955967247      0.939018369      0.232573390      -2.41122907E-03  0.198337033       1.24009326E-04
  0.112133577      -8.47629446E-04  0.953620732      0.935790479      0.230759338      -2.40240153E-03  0.196887136       1.21241435E-04
  0.122327171      -9.68243345E-04  0.951214731      0.932486475      0.228672132      -2.34924606E-03  0.195204645       1.20984390E-04
  0.132520750      -1.09024998E-03  0.948745489      0.929101288      0.226323456      -2.25387397E-03  0.193299353       1.23050064E-04
  0.142714337      -1.21245917E-03  0.946215928      0.925638974      0.223722488      -2.11768365E-03  0.191178665       1.27272680E-04
  0.152907923      -1.33368257E-03  0.943635166      0.922111332      0.220879287      -1.94162526E-03  0.188850492       1.32586807E-04
  0.163101539      -1.45272142E-03  0.941014469      0.918534100      0.217811361      -1.72594737E-03  0.186329097       1.39247626E-04
  0.173295200      -1.56835280E-03  0.938364685      0.914922476      0.214551643      -1.47076638E-03  0.183641866       1.47324055E-04
  0.183488905      -1.67931605E-03  0.935693562      0.911286592      0.211157322      -1.17681827E-03  0.180837378       1.56302005E-04
  0.193682685      -1.78429752E-03  0.933003604      0.907630563      0.207715392      -8.45272094E-04  0.177989900       1.66811049E-04
  0.203876525      -1.88191328E-03  0.930293322      0.903952658      0.204341859      -4.77832917E-04  0.175199002       1.79208815E-04
  0.214070454      -1.97069068E-03  0.927561760      0.900251031      0.201174229      -7.75284061E-05  0.172582984       1.92638487E-04
  0.224264458      -2.04904471E-03  0.924813807      0.896532953      0.198357195       3.52079689E-04  0.170266271       2.07774341E-04
  0.234458551      -2.11525219E-03  0.922068417      0.892823935      0.196022853       8.07159347E-04  0.168362364       2.24322081E-04
  0.244652733      -2.16741930E-03  0.919363499      0.889175475      0.194271222       1.28456659E-03  0.166956708       2.42501497E-04
  0.254846990      -2.20344099E-03  0.916756928      0.885666013      0.193154663       1.78371032E-03  0.166093171       2.62703747E-04
  0.265041292      -2.22095218E-03  0.914323747      0.882396162      0.192669615       2.30737519E-03  0.165767163       2.84656882E-04
  0.275235593      -2.21726228E-03  0.912146628      0.879477739      0.192758009       2.86274194E-03  0.165926680       3.09266150E-04
  0.285429865      -2.18927371E-03  0.910307586      0.877019763      0.193316296       3.46165197E-03  0.166480541       3.36036086E-04
  0.295624018      -2.13337177E-03  0.908875704      0.875114501      0.194210052       4.12102416E-03  0.167311281       3.65201384E-04
  0.305817962      -2.04527588E-03  0.907898426      0.873824716      0.195291996       4.86228755E-03  0.168291226       3.96411866E-04
  0.316011488      -1.91983546E-03  0.907393396      0.873173475      0.196419835       5.71234617E-03  0.169298232       4.29827720E-04
  0.326204360      -1.75073801E-03  0.907344997      0.873138964      0.197471917       6.70397468E-03  0.170229942       4.64972109E-04
  0.336396307      -1.53008103E-03  0.907703400      0.873654008      0.198357835       7.87826907E-03  0.171013296       5.01789153E-04
  0.346586645      -1.24772848E-03  0.908389032      0.874611795      0.199020937       9.28948820E-03  0.171607226       5.40439039E-04
  0.356774658      -8.90274358E-04  0.909301102      0.875877261      0.199432984       1.10135153E-02  0.171999201       5.81301749E-04
  0.366958946      -4.39326104E-04  0.910331309      0.877304912      0.199581146       1.31782265E-02  0.172196612       6.24626875E-04
  0.377137065       1.33766516E-04  0.911386192      0.878769279      0.199475899       1.63513292E-02  0.172263950       6.71081245E-04
  0.387299746       9.32033930E-04  0.912328959      0.880084932      0.199572906       2.11526249E-02  0.172693819       7.19610602E-04
  0.397434235       2.03104783E-03  0.912986577      0.881019056      0.200350598       2.73523405E-02  0.173970714       7.71742314E-04
  0.407523632       3.48527054E-03  0.913266122      0.881449103      0.202027276       3.49511541E-02  0.176380217       8.31097364E-04
  0.417543113       5.36030158E-03  0.913084686      0.881267309      0.204903916       4.43490893E-02  0.180355459       9.03051347E-04
  0.427456856       7.73026003E-03  0.912297428      0.880285800      0.209620178       5.60793355E-02  0.186696425       9.96261835E-04
  0.437217921       1.06651187E-02  0.910640895      0.878162801      0.217406198       7.06382394E-02  0.196737364       1.12602487E-03
  0.446780443       1.41935814E-02  0.907652855      0.874299884      0.230436951       8.78444239E-02  0.212364107       1.31877884E-03
  0.456144422       1.82216074E-02  0.902654171      0.867802680      0.251810819      0.105023608      0.235171914       1.59112737E-03
  0.465438336       2.24102195E-02  0.895106494      0.857945085      0.283341527      0.114412844      0.263787121       1.92242488E-03
  0.474928796       2.61229333E-02  0.885792255      0.845764101      0.319770753      0.105229922      0.291167825       2.26718932E-03
  0.484786808       2.86871437E-02  0.877181530      0.834585071      0.348521829       7.51103759E-02  0.308911175       2.63720751E-03
  0.494905144       2.98680626E-02  0.871079981      0.826850951      0.361806214       3.58741805E-02  0.315392822       3.09924781E-03
  0.505094886       2.98680626E-02  0.866883099      0.821775317      0.362386912      -2.53053731E-03  0.314574003       3.70335579E-03
  0.515213192       2.86871418E-02  0.863198042      0.817634821      0.352989793      -4.21125516E-02  0.308704197       4.61611152E-03
  0.525071204       2.61229314E-02  0.860277832      0.814770162      0.332800120      -8.04404914E-02  0.297338307       5.85059077E-03
  0.534561634       2.24102195E-02  0.859606266      0.814837515      0.305231243     -0.104461648      0.280046731       7.02662021E-03
  0.543855608       1.82216056E-02  0.861248672      0.817653894      0.278025955     -0.106782064      0.258332729       7.80464709E-03
  0.553219557       1.41935805E-02  0.863243103      0.820634127      0.256988913      -9.37776789E-02  0.237130582       8.20455700E-03
  0.562782109       1.06651178E-02  0.863925040      0.821673512      0.243737578      -7.63064474E-02  0.221335128       8.36487114E-03
  0.572543144       7.73025956E-03  0.863098443      0.820596814      0.237198070      -6.04304373E-02  0.212162271       8.39374214E-03
  0.582456887       5.36030112E-03  0.861189187      0.818049490      0.235678419      -4.76029851E-02  0.208496287       8.38504732E-03
  0.592476368       3.48527008E-03  0.858595550      0.814618051      0.237842485      -3.74586135E-02  0.208911881       8.40426981E-03