 title = "grid"
                                   variables = "x","y","rho","P","u","v","M","S"
 zone n=        3000  e =        5742  et=quadrilateral, f=fepoint
   0.00000000       0.00000000      0.973603308      0.963241994      0.269610375       1.39863085E-04  0.229084641       1.27311796E-06
   1.00000000       0.00000000      0.949643493      0.936982095      0.238775879      -9.23071755E-04  0.203162849       7.24498928E-03
   1.00000000      0.300000012      0.943114340      0.927923739      0.376459390      -1.51891669E-03  0.320762575       7.18913414E-03
   0.00000000      0.300000012      0.968954325      0.956812799      0.289727241       3.79883510E-04  0.246413141       5.37745655E-06
   1.00000000       1.03448275E-02  0.949689806      0.936484098      0.242628783      -3.83139914E-03  0.206525221       6.64507598E-03
   1.00000000       2.06896551E-02  0.949887097      0.936225355      0.248273686      -7.15284143E-03  0.211442679       6.07794896E-03
   1.00000000       3.10344826E-02  0.949791729      0.935911715      0.254825115      -1.01086730E-02  0.217128292       5.88343851E-03
   1.00000000       4.13793102E-02  0.949522555      0.935535371      0.262064338      -1.27523765E-02  0.223398387       5.87807223E-03
   1.00000000       5.17241396E-02  0.949150324      0.935097814      0.269730628      -1.51036056E-02  0.230030298       5.95915690E-03
   1.00000000       6.20689653E-02  0.948720217      0.934609056      0.277567655      -1.71716176E-02  0.236803681       6.07096031E-03
   1.00000000       7.24137947E-02  0.948264122      0.934085310      0.285350531      -1.89641453E-02  0.243524730       6.18361495E-03
   1.00000000       8.27586204E-02  0.947805703      0.933544278      0.292898953      -2.04891488E-02  0.250037998       6.28117472E-03
   1.00000000       9.31034461E-02  0.947361290      0.933002770      0.300082475      -2.17536353E-02  0.256230682       6.35753758E-03
   1.00000000      0.103448279      0.946941674      0.932473898      0.306817144      -2.27626413E-02  0.262029886       6.41080365E-03
   1.00000000      0.113793105      0.946553230      0.931965947      0.313059866      -2.35189609E-02  0.267397910       6.44027814E-03
   1.00000000      0.124137931      0.946198165      0.931483030      0.318798959      -2.40231529E-02  0.272324055       6.44723326E-03
   1.00000000      0.134482756      0.945875645      0.931025624      0.324047536      -2.42748130E-02  0.276819110       6.43338449E-03
   1.00000000      0.144827589      0.945583105      0.930592775      0.328834832      -2.42736097E-02  0.280907810       6.40141219E-03
   1.00000000      0.155172408      0.945315838      0.930181742      0.333202600      -2.40206197E-02  0.284625947       6.35536388E-03
   1.00000000      0.165517241      0.945068598      0.929791033      0.337198943      -2.35186964E-02  0.288014889       6.30146451E-03
   1.00000000      0.175862074      0.944837332      0.929418981      0.340875983      -2.27730107E-02  0.291120082       6.24389388E-03
   1.00000000      0.186206892      0.944619119      0.929065466      0.344287544      -2.17914041E-02  0.293988734       6.18677400E-03
   1.00000000      0.196551725      0.944411695      0.928731680      0.347488523      -2.05837805E-02  0.296669334       6.13493286E-03
   1.00000000      0.206896558      0.944215953      0.928419530      0.350534767      -1.91624127E-02  0.299211711       6.08898140E-03
   1.00000000      0.217241377      0.944033444      0.928131819      0.353483170      -1.75418183E-02  0.301666945       6.04966655E-03
   1.00000000      0.227586210      0.943865776      0.927872121      0.356391072      -1.57391224E-02  0.304086357       6.01849705E-03
   1.00000000      0.237931028      0.943713844      0.927644074      0.359315634      -1.37747694E-02  0.306521177       5.99805638E-03
   1.00000000      0.248275861      0.943574965      0.927451074      0.362312108      -1.16734970E-02  0.309020191       5.99597022E-03
   1.00000000      0.258620679      0.943439007      0.927296758      0.365430325      -9.46557894E-03  0.311626077       6.03137352E-03
   1.00000000      0.268965513      0.943283379      0.927184820      0.368710726      -7.18965428E-03  0.314370841       6.14155270E-03
   1.00000000      0.279310346      0.943064511      0.927119792      0.372180104      -4.89674835E-03  0.317270368       6.39634766E-03
   1.00000000      0.289655179      0.942692697      0.927110314      0.375861347      -2.65662000E-03  0.320327252       6.93814084E-03
  0.989898980      0.300000012      0.940510690      0.924258769      0.378540277      -1.93080725E-03  0.322729588       7.10201077E-03
  0.979797959      0.300000012      0.934577703      0.915949464      0.382521957      -1.90214510E-03  0.326565057       6.93059713E-03
  0.969696999      0.300000012      0.929150105      0.908362687      0.385855585      -1.85249164E-03  0.329821587       6.76745176E-03
  0.959595978      0.300000012      0.924336910      0.901641488      0.388433069      -1.79925014E-03  0.332395434       6.61183149E-03
  0.949494958      0.300000012      0.920156896      0.895804644      0.390260071      -1.75571849E-03  0.334286511       6.46263734E-03
  0.939393938      0.300000012      0.916548908      0.890761971      0.391438007      -1.72947999E-03  0.335583180       6.31774589E-03
  0.929292917      0.300000012      0.913408220      0.886366308      0.392117798      -1.72250613E-03  0.336420625       6.17635250E-03
  0.919191897      0.300000012      0.910627663      0.882468462      0.392449081      -1.73303206E-03  0.336933643       6.03744388E-03
  0.909090936      0.300000012      0.908126891      0.878956258      0.392545700      -1.75815995E-03  0.337225318       5.89944795E-03
  0.898989916      0.300000012      0.905863822      0.875770509      0.392473310      -1.79558480E-03  0.337354869       5.76157868E-03
  0.888888896      0.300000012      0.903830528      0.872899413      0.392254055      -1.84427225E-03  0.337341398       5.62382117E-03
  0.878787875      0.300000012      0.902043521      0.870363474      0.391880274      -1.90425979E-03  0.337176979       5.48514724E-03
  0.868686855      0.300000012      0.900530756      0.868198812      0.391329587      -1.97606138E-03  0.336840153       5.34479320E-03
  0.858585835      0.300000012      0.899321735      0.866444528      0.390576035      -2.06008530E-03  0.336306125       5.20298257E-03
  0.848484874      0.300000012      0.898442447      0.865134835      0.389596522      -2.15598568E-03  0.335552841       5.05979732E-03
  0.838383853      0.300000012      0.897912920      0.864295363      0.388372838      -2.26244330E-03  0.334563226       4.91437688E-03
  0.828282833      0.300000012      0.897747278      0.863944650      0.386891663      -2.37739412E-03  0.333324820       4.76675853E-03
  0.818181813      0.300000012      0.897953570      0.864093721      0.385143340      -2.49814941E-03  0.331828743       4.61762026E-03
  0.808080792      0.300000012      0.898535252      0.864746809      0.383121908      -2.62192846E-03  0.330070138       4.46655601E-03
  0.797979772      0.300000012      0.899490178      0.865901411      0.380825281      -2.74613034E-03  0.328047723       4.31377441E-03
  0.787878811      0.300000012      0.900810778      0.867547929      0.378256470      -2.86847097E-03  0.325765371       4.15959209E-03
  0.777777791      0.300000012      0.902483940      0.869668603      0.375424296      -2.98695476E-03  0.323232442       4.00304049E-03
  0.767676771      0.300000012      0.904490292      0.872238576      0.372344196      -3.10052838E-03  0.320464522       3.84487957E-03
  0.757575750      0.300000012      0.906804800      0.875224233      0.369038343      -3.20832012E-03  0.317483485       3.68411094E-03
  0.747474730      0.300000012      0.909396887      0.878585696      0.365535289      -3.30998655E-03  0.314316928       3.52132320E-03
  0.737373710      0.300000012      0.912231624      0.882276475      0.361868709      -3.40537820E-03  0.310997158       3.35608050E-03
  0.727272749      0.300000012      0.915270329      0.886245787      0.358076543      -3.49453883E-03  0.307560205       3.18915769E-03
  0.717171729      0.300000012      0.918471634      0.890438437      0.354199231      -3.57764377E-03  0.304044187       3.02064419E-03
  0.707070708      0.300000012      0.921791553      0.894796789      0.350278854      -3.65483901E-03  0.300488383       2.85194814E-03
  0.696969688      0.300000012      0.925184906      0.899260759      0.346358120      -3.72608285E-03  0.296932608       2.68410146E-03
  0.686868668      0.300000012      0.928604603      0.903767705      0.342479080      -3.79110593E-03  0.293415874       2.51825899E-03
  0.676767647      0.300000012      0.932002723      0.908253610      0.338682711      -3.84950172E-03  0.289976001       2.35570595E-03
  0.666666687      0.300000012      0.935329854      0.912651956      0.335008919      -3.90061550E-03  0.286649764       2.19779089E-03
  0.656565666      0.300000012      0.938534737      0.916894019      0.331495911      -3.94374644E-03  0.283472210       2.04616413E-03
  0.646464646      0.300000012      0.941565812      0.920909464      0.328180283      -3.97803448E-03  0.280476987       1.90193392E-03
  0.636363626      0.300000012      0.944371283      0.924627900      0.325096667      -4.00288682E-03  0.277695805       1.76632777E-03
  0.626262605      0.300000012      0.946901023      0.927979887      0.322277844      -4.01798682E-03  0.275158674       1.63978338E-03
  0.616161644      0.300000012      0.949110210      0.930903077      0.319752812      -4.02290327E-03  0.272891998       1.52234361E-03
  0.606060624      0.300000012      0.950963497      0.933347762      0.317540675      -4.01474768E-03  0.270913273       1.41400285E-03
  0.595959604      0.300000012      0.952440083      0.935284913      0.315644294      -3.99143901E-03  0.269225061       1.31523609E-03
  0.585858583      0.300000012      0.953539550      0.936712801      0.314046353      -3.95145919E-03  0.267812133       1.22558512E-03
  0.575757563      0.300000012      0.954285324      0.937662899      0.312706143      -3.89311300E-03  0.266637862       1.14478357E-03
  0.565656543      0.300000012      0.954725802      0.938201547      0.311559290      -3.81523580E-03  0.265644312       1.07302144E-03
  0.555555582      0.300000012      0.954930782      0.938423753      0.310521364      -3.71765089E-03  0.264755547       1.00928731E-03
  0.545454562      0.300000012      0.954982758      0.938442767      0.309496582      -3.60120554E-03  0.263885230       9.53374431E-04
  0.535353541      0.300000012      0.954964936      0.938372195      0.308388054      -3.46798054E-03  0.262946337       9.04310495E-04
  0.525252521      0.300000012      0.954948127      0.938309014      0.307107717      -3.32354289E-03  0.261859983       8.61607492E-04
  0.515151501      0.300000012      0.954978764      0.938316643      0.305591971      -3.17788054E-03  0.260569453       8.24809074E-04
  0.505050480      0.300000012      0.955075502      0.938419759      0.303816140      -3.04126996E-03  0.259053111       7.92909414E-04
  0.494949490      0.300000012      0.955233276      0.938610196      0.301793158      -2.91467551E-03  0.257322460       7.64571130E-04
  0.484848499      0.300000012      0.955431163      0.938858569      0.299552381      -2.79002846E-03  0.255403697       7.39159063E-04
  0.474747479      0.300000012      0.955636263      0.939118683      0.297130436      -2.66367802E-03  0.253330022       7.15650618E-04
  0.464646459      0.300000012      0.955809355      0.939335585      0.294579715      -2.53769197E-03  0.251148283       6.93071634E-04
  0.454545468      0.300000012      0.955913067      0.939457476      0.291968733      -2.41029309E-03  0.248918846       6.70885667E-04
  0.444444448      0.300000012      0.955918372      0.939443827      0.289370626      -2.27597915E-03  0.246705517       6.48591667E-04
  0.434343427      0.300000012      0.955804825      0.939266443      0.286853135      -2.13041296E-03  0.244566932       6.26055524E-04
  0.424242437      0.300000012      0.955559731      0.938907862      0.284474164      -1.97298848E-03  0.242553011       6.03258610E-04
  0.414141417      0.300000012      0.955177605      0.938360333      0.282282561      -1.80552807E-03  0.240705594       5.79915941E-04
  0.404040396      0.300000012      0.954658806      0.937625170      0.280317098      -1.63087167E-03  0.239057511       5.56753948E-04
  0.393939406      0.300000012      0.954010487      0.936711609      0.278605610      -1.45204435E-03  0.237632245       5.33021986E-04
  0.383838385      0.300000012      0.953245223      0.935637772      0.277164459      -1.27212203E-03  0.236443043       5.09455800E-04
  0.373737365      0.300000012      0.952382267      0.934430540      0.275997937      -1.09386805E-03  0.235492662       4.86277044E-04
  0.363636374      0.300000012      0.951447248      0.933125794      0.275098145      -9.19395534E-04  0.234773085       4.64176759E-04
  0.353535354      0.300000012      0.950471222      0.931766093      0.274445623      -7.50492327E-04  0.234266385       4.42883000E-04
  0.343434334      0.300000012      0.949488342      0.930398703      0.274012387      -5.88450173E-04  0.233946979       4.22768295E-04
  0.333333343      0.300000012      0.948533595      0.929072022      0.273765564      -4.34191723E-04  0.233785197       4.04292718E-04
  0.323232323      0.300000012      0.947639644      0.927830756      0.273671985      -2.88276176E-04  0.233751178       3.87405977E-04
  0.313131303      0.300000012      0.946833134      0.926711023      0.273702174      -1.50763954E-04  0.233818501       3.71839851E-04
  0.303030312      0.300000012      0.946131945      0.925737917      0.273834199      -2.14335414E-05  0.233967468       3.58395278E-04
  0.292929292      0.300000012      0.945543289      0.924920201      0.274055690       1.00193196E-04  0.234187350       3.46040353E-04
  0.282828271      0.300000012      0.945062697      0.924251676      0.274366111       2.14344385E-04  0.234477833       3.34778801E-04
  0.272727281      0.300000012      0.944674194      0.923710287      0.274775535       3.21314263E-04  0.234848320       3.24416906E-04
  0.262626261      0.300000012      0.944352865      0.923261404      0.275303245       4.20950993E-04  0.235316634       3.14697623E-04
  0.252525240      0.300000012      0.944068611      0.922863066      0.275974333       5.12738829E-04  0.235905766       3.04561108E-04
  0.242424250      0.300000012      0.943789184      0.922471285      0.276814431       5.95944177E-04  0.236639261       2.94450670E-04
  0.232323229      0.300000012      0.943486273      0.922047436      0.277845830       6.69444795E-04  0.237537548       2.84209847E-04
  0.222222224      0.300000012      0.943139970      0.921564341      0.279081583       7.32174609E-04  0.238612875       2.74121761E-04
  0.212121218      0.300000012      0.942742169      0.921011209      0.280521452       7.83314463E-04  0.239865497       2.64372677E-04
  0.202020198      0.300000012      0.942299843      0.920398057      0.282149106       8.22345493E-04  0.241281062       2.55439430E-04
  0.191919193      0.300000012      0.941835165      0.919755280      0.283931375       8.49197444E-04  0.242830172       2.47374177E-04
  0.181818187      0.300000012      0.941384137      0.919132352      0.285818845       8.64536734E-04  0.244468689       2.40463763E-04
  0.171717167      0.300000012      0.940993547      0.918593347      0.287749797       8.69207201E-04  0.246141404       2.34838575E-04
  0.161616161      0.300000012      0.940716267      0.918209851      0.289655358       8.64767411E-04  0.247786596       2.29865313E-04
  0.151515156      0.300000012      0.940606415      0.918055594      0.291465402       8.52622848E-04  0.249341369       2.25342810E-04
  0.141414136      0.300000012      0.940714598      0.918197393      0.293114692       8.33982602E-04  0.250747293       2.18793750E-04
  0.131313130      0.300000012      0.941082656      0.918691695      0.294548810       8.09949124E-04  0.251955509       2.09368765E-04
  0.121212125      0.300000012      0.941741705      0.919579148      0.295726806       7.81377137E-04  0.252929538       1.94776803E-04
  0.111111112      0.300000012      0.942710221      0.920884371      0.296623707       7.48975493E-04  0.253647000       1.74079090E-04
  0.101010099      0.300000012      0.943993390      0.922615647      0.297228366       7.14048219E-04  0.254098177       1.48016959E-04
   9.09090936E-02  0.300000012      0.945583999      0.924767315      0.297540694       6.78474666E-04  0.254282981       1.20470300E-04
   8.08080807E-02  0.300000012      0.947465599      0.927321672      0.297565848       6.45255845E-04  0.254206508       9.57325101E-05
   7.07070678E-02  0.300000012      0.949616611      0.930252016      0.297310740       6.17294922E-04  0.253875822       7.59940594E-05
   6.06060624E-02  0.300000012      0.952012122      0.933525980      0.296783239       5.96503611E-04  0.253299445       6.20689243E-05
   5.05050495E-02  0.300000012      0.954625607      0.937105894      0.295994788       5.81944827E-04  0.252489358       5.14723361E-05
   4.04040404E-02  0.300000012      0.957428753      0.940951645      0.294964910       5.70496079E-04  0.251464546       4.20007855E-05
   3.03030312E-02  0.300000012      0.960391581      0.945021272      0.293724298       5.57657564E-04  0.250253439       3.20188701E-05
   2.02020202E-02  0.300000012      0.963480771      0.949270189      0.292315632       5.37428132E-04  0.248894542       2.20108777E-05
   1.01010101E-02  0.300000012      0.966653347      0.953640044      0.290807128       4.94138047E-04  0.247448474       1.24387443E-05
   0.00000000      0.289655179      0.969154418      0.957088709      0.289510518       2.50826444E-04  0.246218637       4.63612378E-06
   0.00000000      0.279310346      0.969211400      0.957167566      0.289298415       2.04646640E-04  0.246035278       4.71621752E-06
   0.00000000      0.268965513      0.969268978      0.957247078      0.289125532       1.97579822E-04  0.245885357       4.61377203E-06
   0.00000000      0.258620679      0.969333947      0.957336962      0.288950473       2.14020154E-04  0.245733187       4.65475023E-06
   0.00000000      0.248275861      0.969410896      0.957443058      0.288745552       2.50499637E-04  0.245555058       4.34555113E-06
   0.00000000      0.237931028      0.969502747      0.957570136      0.288486779       3.04898567E-04  0.245330393       4.48524952E-06
   0.00000000      0.227586210      0.969612598      0.957721829      0.288151324       3.75553296E-04  0.245039657       4.23379242E-06
   0.00000000      0.217241377      0.969743073      0.957902014      0.287719280       4.59484785E-04  0.244665802       4.00654972E-06
   0.00000000      0.206896558      0.969895780      0.958113134      0.287174135       5.53021149E-04  0.244194716       3.87988985E-06
   0.00000000      0.196551725      0.970071614      0.958356023      0.286504656       6.51789422E-04  0.243616819       3.60049307E-06
   0.00000000      0.186206892      0.970270336      0.958630800      0.285705745       7.50428007E-04  0.242927760       3.54461372E-06
   0.00000000      0.175862074      0.970490217      0.958934605      0.284779340       8.43865913E-04  0.242129371       3.14600766E-06
   0.00000000      0.165517241      0.970728397      0.959263921      0.283734560       9.26992798E-04  0.241229475       2.94484198E-06
   0.00000000      0.155172408      0.970980704      0.959612966      0.282586932       9.95371491E-04  0.240241498       2.91317701E-06
   0.00000000      0.144827589      0.971242428      0.959974825      0.281357527       1.04527944E-03  0.239183649       2.64495611E-06
   0.00000000      0.134482756      0.971508026      0.960342348      0.280071825       1.07389083E-03  0.238077715       2.59093940E-06
   0.00000000      0.124137931      0.971771717      0.960707128      0.278758109       1.07947947E-03  0.236948177       2.45682895E-06
   0.00000000      0.113793105      0.972028077      0.961061895      0.277446121       1.06135767E-03  0.235820502       2.39349902E-06
   0.00000000      0.103448279      0.972271919      0.961399376      0.276165366       1.01957156E-03  0.234720007       2.30595469E-06
   0.00000000       9.31034461E-02  0.972498596      0.961712956      0.274944097       9.55239986E-04  0.233670950       2.06660479E-06
   0.00000000       8.27586204E-02  0.972704232      0.961997449      0.273808330       8.70054238E-04  0.232695684       1.80304050E-06
   0.00000000       7.24137947E-02  0.972885430      0.962248623      0.272781372       7.66322075E-04  0.231813982       2.08336860E-06
   0.00000000       6.20689653E-02  0.973040283      0.962462962      0.271883219       6.47099223E-04  0.231043115       2.00141221E-06
   0.00000000       5.17241396E-02  0.973166764      0.962638140      0.271131039       5.16674307E-04  0.230397701       2.00700015E-06
   0.00000000       4.13793102E-02  0.973264217      0.962772906      0.270538002       3.81275779E-04  0.229888961       1.85798854E-06
   0.00000000       3.10344826E-02  0.973332167      0.962867081      0.270114303       2.51671823E-04  0.229525596       1.95764005E-06
   0.00000000       2.06896551E-02  0.973371804      0.962922156      0.269866586       1.47138155E-04  0.229313135       2.10851431E-06
   0.00000000       1.03448275E-02  0.973385334      0.962940991      0.269797057       1.04567785E-04  0.229253381       2.21189111E-06
   1.01942774E-02  -1.06002917E-05  0.972627401      0.961892724      0.270176351      -3.26811933E-05  0.229611292       3.58466059E-06
   2.03885511E-02  -4.05888240E-05  0.970376492      0.958781838      0.271196991      -3.98534641E-04  0.230585277       7.92555511E-06
   3.05827484E-02  -8.74972393E-05  0.968173325      0.955743134      0.271972477      -7.45006022E-04  0.231349483       1.57617033E-05
   4.07768898E-02  -1.49138228E-04  0.966003239      0.952758908      0.272533238      -1.04472751E-03  0.231929734       2.99401581E-05
   5.09709269E-02  -2.23550553E-04  0.963853061      0.949811041      0.272903949      -1.29674375E-03  0.232347220       5.07775694E-05
   6.11648858E-02  -3.08956922E-04  0.961705685      0.946873426      0.273122430      -1.50577864E-03  0.232635006       7.56699592E-05
   7.13587478E-02  -4.03728453E-04  0.959537983      0.943910539      0.273242384      -1.67614769E-03  0.232840180       1.00830570E-04
   8.15525427E-02  -5.06357115E-04  0.957321882      0.940880060      0.273324192      -1.80950970E-03  0.233015835       1.22187659E-04
   9.17462707E-02  -6.15430705E-04  0.955026329      0.937736571      0.273422867      -1.90475606E-03  0.233210772       1.36708841E-04
  0.101939946      -7.29613879E-04  0.952621460      0.934439123      0.273580343      -1.96167361E-03  0.233462274       1.43893063E-04
  0.112133577      -8.47629446E-04  0.950084150      0.930957913      0.273822784      -1.98247423E-03  0.233793780       1.45375729E-04
  0.122327171      -9.68243345E-04  0.947402775      0.927280664      0.274161607      -1.97219150E-03  0.234215468       1.44368038E-04
  0.132520750      -1.09024998E-03  0.944581509      0.923415124      0.274593383      -1.93652441E-03  0.234724313       1.42261386E-04
  0.142714337      -1.21245917E-03  0.941638470      0.919389367      0.275100440      -1.88026403E-03  0.235304266       1.41877681E-04
  0.152907923      -1.33368257E-03  0.938605309      0.915247381      0.275651127      -1.80596637E-03  0.235926852       1.43427402E-04
  0.163101539      -1.45272142E-03  0.935520828      0.911042511      0.276202261      -1.71336741E-03  0.236553282       1.46921724E-04
  0.173295200      -1.56835280E-03  0.932425022      0.906829894      0.276702970      -1.59945001E-03  0.237137958       1.52729452E-04
  0.183488905      -1.67931605E-03  0.929353058      0.902657092      0.277100712      -1.45895535E-03  0.237634018       1.60656869E-04
  0.193682685      -1.78429752E-03  0.926330268      0.898557603      0.277347505      -1.28535868E-03  0.237998858       1.69772655E-04
  0.203876525      -1.88191328E-03  0.923366368      0.894544721      0.277406126      -1.07132678E-03  0.238199711       1.80512667E-04
  0.214070454      -1.97069068E-03  0.920454681      0.890609205      0.277254611      -8.09958321E-04  0.238217801       1.92996114E-04
  0.224264458      -2.04904471E-03  0.917571962      0.886719167      0.276888281      -4.95034270E-04  0.238050044       2.06984580E-04
  0.234458551      -2.11525219E-03  0.914681911      0.882825613      0.276318401      -1.21395569E-04  0.237707794       2.22917646E-04
  0.244652733      -2.16741930E-03  0.911739767      0.878867269      0.275567740       3.15156416E-04  0.237212986       2.39577144E-04
  0.254846990      -2.20344099E-03  0.908697784      0.874780893      0.274663836       8.18279630E-04  0.236591697       2.57954001E-04
  0.265041292      -2.22095218E-03  0.905512154      0.870507300      0.273632407       1.39211921E-03  0.235868558       2.77236104E-04
  0.275235593      -2.21726228E-03  0.902146399      0.865998387      0.272490829       2.04182719E-03  0.235060722       2.97579914E-04
  0.285429865      -2.18927371E-03  0.898574889      0.861221194      0.271244824       2.77449260E-03  0.234174684       3.19387764E-04
  0.295624018      -2.13337177E-03  0.894783735      0.856158495      0.269886196       3.60078178E-03  0.233204693       3.42771411E-04
  0.305817962      -2.04527588E-03  0.890770614      0.850809157      0.268394411       4.53508925E-03  0.232133746       3.68222594E-04
  0.316011488      -1.91983546E-03  0.886543572      0.845185697      0.266738057       5.59786381E-03  0.230935439       3.96072865E-04
  0.326204360      -1.75073801E-03  0.882121027      0.839314222      0.264877170       6.81672990E-03  0.229575798       4.26314771E-04
  0.336396307      -1.53008103E-03  0.877530754      0.833233237      0.262765884       8.23027268E-03  0.228016227       4.58940864E-04
  0.346586645      -1.24772848E-03  0.872810602      0.826994359      0.260352373       9.89363156E-03  0.226214051       4.94010746E-04
  0.356774658      -8.90274358E-04  0.868010223      0.820663571      0.257577807       1.18885394E-02  0.224122971       5.30481339E-04
  0.366958946      -4.39326104E-04  0.863192737      0.814325273      0.254371732       1.43584078E-02  0.221692279       5.68836927E-04
  0.377137065       1.33766516E-04  0.858448505      0.808098733      0.250678211       1.79688204E-02  0.218922466       6.09003007E-04
  0.387299746       9.32033930E-04  0.853775024      0.801979601      0.247035116       2.34286580E-02  0.216386005       6.50435686E-04
  0.397434235       2.03104783E-03  0.849076807      0.795843720      0.244055167       3.03930156E-02  0.214696705       6.95414841E-04
  0.407523632       3.48527054E-03  0.844347000      0.789683938      0.242033884       3.87870222E-02  0.214216173       7.45899975E-04
  0.417543113       5.36030158E-03  0.839567661      0.783481359      0.241374508       4.90084663E-02  0.215483084       8.07441771E-04
  0.427456856       7.73026003E-03  0.834615231      0.777084351      0.242903188       6.16071783E-02  0.219490603       8.91834497E-04
  0.437217921       1.06651187E-02  0.829209089      0.770146608      0.248137146       7.71125928E-02  0.227872744       1.02172047E-03
  0.446780443       1.41935814E-02  0.822807014      0.761996746      0.259679765       9.53532085E-02  0.242947474       1.23402476E-03
  0.456144422       1.82216074E-02  0.814538658      0.751543343      0.281299055      0.113546945      0.266907513       1.56035274E-03
  0.465438336       2.24102195E-02  0.803629398      0.737800479      0.315559924      0.123488918      0.298894256       1.98200345E-03
  0.474928796       2.61229333E-02  0.790856421      0.721745253      0.357184678      0.113460414      0.331558466       2.41135061E-03
  0.484786808       2.86871437E-02  0.779194653      0.707150161      0.392013580       8.02972242E-02  0.355000556       2.77987123E-03
  0.494905144       2.98680626E-02  0.771174908      0.697242916      0.410100877       3.63912992E-02  0.365943700       3.15466523E-03
  0.505094886       2.98680626E-02  0.766399384      0.691533029      0.413394034      -7.29732169E-03  0.367865413       3.62823904E-03
  0.515213192       2.86871418E-02  0.763224840      0.688073456      0.404637396      -5.27669676E-02  0.363222331       4.42402065E-03
  0.525071204       2.61229314E-02  0.761937797      0.687251091      0.382466584      -9.71044078E-02  0.351152897       5.59094548E-03
  0.534561634       2.24102195E-02  0.763994694      0.690631032      0.350818336     -0.125335038      0.331150413       6.72261417E-03
  0.543855608       1.82216056E-02  0.769133270      0.697668314      0.319041461     -0.128668964      0.305269837       7.47597218E-03
  0.553219557       1.41935805E-02  0.774909317      0.705320001      0.294107169     -0.114013575      0.279431760       7.90931284E-03
  0.562782109       1.06651178E-02  0.779353678      0.711174548      0.277804106      -9.37420502E-02  0.259400129       8.16906989E-03
  0.572543144       7.73025956E-03  0.782299519      0.715060055      0.268434256      -7.48900399E-02  0.246357173       8.33591819E-03
  0.582456887       5.36030112E-03  0.784371316      0.717788100      0.263430238      -5.92362136E-02  0.238547921       8.44094157E-03
  0.592476368       3.48527008E-03  0.786157608      0.720112681      0.260846734      -4.65872400E-02  0.233988419       8.48960876E-03