 title = "grid"
                                   variables = "x","y","rho","P","u","v","M","S"
 zone n=        3000  e =        5742  et=quadrilateral, f=fepoint
   0.00000000       0.00000000      0.957675993      0.941252172      0.346496016      -3.11903714E-04  0.295386553      -1.47148967E-07
   1.00000000       0.00000000      0.946289420      0.932608068      0.151196942       9.53510025E-05  0.128718659       7.51931779E-03
   1.00000000      0.300000012      0.948191524      0.933422625      0.274004817       2.24290809E-04  0.233401269       5.58103248E-03
   0.00000000      0.300000012      0.956614256      0.939793348      0.347378612       2.55592720E-04  0.296204358       1.80117786E-06
   1.00000000       1.03448275E-02  0.946468294      0.932618439      0.154419571      -5.10048631E-06  0.131473839       7.26582855E-03
   1.00000000       2.06896551E-02  0.946629941      0.932653069      0.158926025      -7.02090256E-05  0.135319740       7.06389174E-03
   1.00000000       3.10344826E-02  0.946718037      0.932707846      0.163091227      -9.96810704E-05  0.138868630       6.99229166E-03
   1.00000000       4.13793102E-02  0.946795166      0.932784379      0.167029768      -1.18060554E-04  0.142222196       6.96031749E-03
   1.00000000       5.17241396E-02  0.946890771      0.932884991      0.170829207      -1.42359393E-04  0.145456851       6.92683272E-03
   1.00000000       6.20689653E-02  0.947016239      0.933011830      0.174558416      -1.85936660E-04  0.148631960       6.87727705E-03
   1.00000000       7.24137947E-02  0.947173893      0.933166564      0.178276375      -2.60870467E-04  0.151797816       6.81001507E-03
   1.00000000       8.27586204E-02  0.947361767      0.933350027      0.182035178      -3.77747929E-04  0.154998630       6.72892481E-03
   1.00000000       9.31034461E-02  0.947575569      0.933560669      0.185882345      -5.44790644E-04  0.158274755       6.63865916E-03
   1.00000000      0.103448279      0.947809458      0.933794081      0.189860269      -7.66178826E-04  0.161662251       6.54315203E-03
   1.00000000      0.113793105      0.948056042      0.934042037      0.194004372      -1.04109780E-03  0.165191442       6.44448958E-03
   1.00000000      0.124137931      0.948305368      0.934292614      0.198339269      -1.36241829E-03  0.168883637       6.34456426E-03
   1.00000000      0.134482756      0.948546410      0.934531510      0.202873856      -1.71674101E-03  0.172746778       6.24441914E-03
   1.00000000      0.144827589      0.948767841      0.934743166      0.207599416      -2.08510086E-03  0.176773787       6.14409335E-03
   1.00000000      0.155172408      0.948957741      0.934911966      0.212488323      -2.44523282E-03  0.180941373       6.04450703E-03
   1.00000000      0.165517241      0.949108124      0.935026109      0.217495516      -2.77345232E-03  0.185211360       5.94477169E-03
   1.00000000      0.175862074      0.949213088      0.935078263      0.222564399      -3.04741878E-03  0.189535379       5.84571622E-03
   1.00000000      0.186206892      0.949271142      0.935067236      0.227633834      -3.24821239E-03  0.193861127       5.74827008E-03
   1.00000000      0.196551725      0.949284732      0.934997201      0.232645899      -3.36164283E-03  0.198138922       5.65335527E-03
   1.00000000      0.206896558      0.949260771      0.934877515      0.237554386      -3.37864761E-03  0.202329114       5.56069985E-03
   1.00000000      0.217241377      0.949208260      0.934721053      0.242329583      -3.29486141E-03  0.206405982       5.47071919E-03
   1.00000000      0.227586210      0.949137211      0.934542120      0.246961460      -3.10985674E-03  0.210360736       5.38408011E-03
   1.00000000      0.237931028      0.949057758      0.934355319      0.251459092      -2.82632117E-03  0.214200765       5.30139916E-03
   1.00000000      0.248275861      0.948977411      0.934174299      0.255846232      -2.44926498E-03  0.217945993       5.22615761E-03
   1.00000000      0.258620679      0.948897839      0.934010804      0.260153532      -1.98552501E-03  0.221621603       5.16850129E-03
   1.00000000      0.268965513      0.948811054      0.933873594      0.264408201      -1.44488923E-03  0.225249171       5.14961034E-03
   1.00000000      0.279310346      0.948690474      0.933768034      0.268627435      -8.40713910E-04  0.228839636       5.21458127E-03
   1.00000000      0.289655179      0.948472977      0.933691263      0.272835165      -1.87852187E-04  0.232405946       5.45329787E-03
  0.989898980      0.300000012      0.948966026      0.934422255      0.274573237       4.14817587E-05  0.233855695       5.50835766E-03
  0.979797959      0.300000012      0.950670302      0.936636686      0.276125818      -1.57681243E-05  0.235110700       5.36333956E-03
  0.969696999      0.300000012      0.952370107      0.938846350      0.278599858      -6.23342567E-05  0.237149671       5.21874800E-03
  0.959595978      0.300000012      0.954207420      0.941247761      0.281845182      -1.02942067E-04  0.239836916       5.07504307E-03
  0.949494958      0.300000012      0.956303179      0.944008112      0.285704583      -1.44866150E-04  0.243031830       4.93183360E-03
  0.939393938      0.300000012      0.958746016      0.947250783      0.290016711      -1.96743698E-04  0.246591657       4.78927046E-03
  0.929292917      0.300000012      0.961586177      0.951046407      0.294617593      -2.67925643E-04  0.250373334       4.64710407E-03
  0.919191897      0.300000012      0.964831412      0.955407083      0.299343348      -3.67376226E-04  0.254236221       4.50491533E-03
  0.909090936      0.300000012      0.968448877      0.960289061      0.304033756      -5.02871349E-04  0.258045167       4.36248351E-03
  0.898989916      0.300000012      0.972371280      0.965600252      0.308537692      -6.79506571E-04  0.261675239       4.21923306E-03
  0.888888896      0.300000012      0.976508319      0.971216500      0.312719524      -8.98468832E-04  0.265016377       4.07492695E-03
  0.878787875      0.300000012      0.980759859      0.976999223      0.316465884      -1.15662406E-03  0.267978549       3.92925274E-03
  0.868686855      0.300000012      0.985029221      0.982813954      0.319691956      -1.44707900E-03  0.270496130       3.78210959E-03
  0.858585835      0.300000012      0.989233911      0.988545239      0.322344661      -1.75965298E-03  0.272529900       3.63335386E-03
  0.848484874      0.300000012      0.993312180      0.994106233      0.324403495      -2.08261935E-03  0.274067134       3.48321861E-03
  0.838383853      0.300000012      0.997225046      0.999441922      0.325877368      -2.40435288E-03  0.275118530       3.33206006E-03
  0.828282833      0.300000012       1.00095403       1.00452650      0.326799154      -2.71446188E-03  0.275713652       3.18120164E-03
  0.818181813      0.300000012       1.00449848       1.00935864      0.327218801      -3.00444080E-03  0.275895417       3.03130317E-03
  0.808080792      0.300000012       1.00786901       1.01395404      0.327197075      -3.26804863E-03  0.275714755       2.88401777E-03
  0.797979772      0.300000012       1.01108313       1.01833808      0.326799482      -3.50154750E-03  0.275226176       2.74096709E-03
  0.787878811      0.300000012       1.01416099       1.02253950      0.326092511      -3.70301073E-03  0.274484724       2.60297582E-03
  0.777777791      0.300000012       1.01712096       1.02658546      0.325140476      -3.87184462E-03  0.273543626       2.47181393E-03
  0.767676771      0.300000012       1.01997817       1.03049731      0.324004143      -4.00883192E-03  0.272453129       2.34786421E-03
  0.757575750      0.300000012       1.02274120       1.03428805      0.322741032      -4.11552144E-03  0.271261126       2.23221630E-03
  0.747474730      0.300000012       1.02541280       1.03796124      0.321405083      -4.19378281E-03  0.270012885       2.12504342E-03
  0.737373710      0.300000012       1.02798879       1.04151046      0.320047289      -4.24568355E-03  0.268751383       2.02610344E-03
  0.727272749      0.300000012       1.03045857       1.04492068      0.318716019      -4.27325442E-03  0.267517686       1.93548575E-03
  0.717171729      0.300000012       1.03280795       1.04817045      0.317455292      -4.27812152E-03  0.266349465       1.85240060E-03
  0.707070708      0.300000012       1.03502083       1.05123556      0.316303909      -4.26156679E-03  0.265279979       1.77607499E-03
  0.696969688      0.300000012       1.03708303       1.05409539      0.315291643      -4.22403635E-03  0.264334708       1.70613639E-03
  0.686868668      0.300000012       1.03898585       1.05673599      0.314436048      -4.16528294E-03  0.263528764       1.64180249E-03
  0.676767647      0.300000012       1.04073083       1.05915844      0.313738704      -4.08449303E-03  0.262863100       1.58218108E-03
  0.666666687      0.300000012       1.04233074       1.06138015      0.313183278      -3.98025103E-03  0.262323290       1.52700581E-03
  0.656565666      0.300000012       1.04381096       1.06343544      0.312734812      -3.85082094E-03  0.261878878       1.47480331E-03
  0.646464646      0.300000012       1.04520476       1.06537223      0.312343270      -3.69438739E-03  0.261486053       1.42629445E-03
  0.636363626      0.300000012       1.04654968       1.06724238      0.311948627      -3.50928097E-03  0.261092812       1.37985870E-03
  0.626262605      0.300000012       1.04787767       1.06909156      0.311489433      -3.29420064E-03  0.260646194       1.33565255E-03
  0.616161644      0.300000012       1.04920757       1.07094550      0.310913026      -3.04878736E-03  0.260101467       1.29268318E-03
  0.606060624      0.300000012       1.05053759       1.07280147      0.310183287      -2.77249841E-03  0.259428591       1.25067867E-03
  0.595959604      0.300000012       1.05184102       1.07462060      0.309286326      -2.46600062E-03  0.258617550       1.20889954E-03
  0.585858583      0.300000012       1.05306375       1.07632565      0.308234334      -2.13177386E-03  0.257681280       1.16775930E-03
  0.575757563      0.300000012       1.05412734       1.07780385      0.307067215      -1.77337520E-03  0.256657153       1.12700835E-03
  0.565656543      0.300000012       1.05493402       1.07891428      0.305850595      -1.39599270E-03  0.255604804       1.08574890E-03
  0.555555582      0.300000012       1.05537117       1.07949579      0.304672986      -1.00636284E-03  0.254603565       1.04448758E-03
  0.545454562      0.300000012       1.05531824       1.07937562      0.303643137      -6.13026787E-04  0.253749847       1.00351311E-03
  0.535353541      0.300000012       1.05465424       1.07838142      0.302883148      -2.25446376E-04  0.253151238       9.62985680E-04
  0.525252521      0.300000012       1.05326688       1.07635307      0.302521765       1.49755069E-04  0.252920777       9.23234969E-04
  0.515151501      0.300000012       1.05106258       1.07315898      0.302677423       5.15885476E-04  0.253162235       8.84329900E-04
  0.505050480      0.300000012       1.04797745       1.06871140      0.303434998       8.84332287E-04  0.253950596       8.46674666E-04
  0.494949490      0.300000012       1.04398310       1.06297421      0.304838359       1.26201636E-03  0.255325794       8.10170546E-04
  0.484848499      0.300000012       1.03908622       1.05596316      0.306904763       1.64510112E-03  0.257304430       7.74996355E-04
  0.474747479      0.300000012       1.03333199       1.04774976      0.309621662       2.03369814E-03  0.259876996       7.40895048E-04
  0.464646459      0.300000012       1.02680957       1.03846824      0.312922567       2.43381783E-03  0.262987047       7.07612373E-04
  0.454545468      0.300000012       1.01964521       1.02830410      0.316691458       2.83910986E-03  0.266534567       6.74384646E-04
  0.444444448      0.300000012       1.01198924       1.01747739      0.320795089       3.22696287E-03  0.270402849       6.41382299E-04
  0.434343427      0.300000012       1.00401103       1.00623131      0.325104028       3.57266515E-03  0.274476349       6.07824419E-04
  0.424242437      0.300000012      0.995889902      0.994821787      0.329495579       3.85909714E-03  0.278643131       5.74324396E-04
  0.414141417      0.300000012      0.987803757      0.983499587      0.333852828       4.07734886E-03  0.282794952       5.41621819E-04
  0.404040396      0.300000012      0.979915619      0.972490549      0.338070065       4.22418537E-03  0.286832452       5.09437174E-04
  0.393939406      0.300000012      0.972361326      0.961981237      0.342061788       4.30019619E-03  0.290673465       4.78604808E-04
  0.383838385      0.300000012      0.965243816      0.952109873      0.345768809       4.30859905E-03  0.294259489       4.49556857E-04
  0.373737365      0.300000012      0.958631694      0.942965627      0.349160016       4.25457116E-03  0.297557384       4.22226265E-04
  0.363636374      0.300000012      0.952562094      0.934593797      0.352231026       4.14471794E-03  0.300558388       3.96663323E-04
  0.353535354      0.300000012      0.947047234      0.927005887      0.354997218       3.98780638E-03  0.303272426       3.73490155E-04
  0.343434334      0.300000012      0.942081988      0.920189619      0.357484549       3.79376533E-03  0.305719674       3.52609903E-04
  0.333333343      0.300000012      0.937649548      0.914117098      0.359723836       3.57114547E-03  0.307925731       3.34057957E-04
  0.323232323      0.300000012      0.933726490      0.908751905      0.361746371       3.32859228E-03  0.309917241       3.17241997E-04
  0.313131303      0.300000012      0.930286407      0.904054761      0.363579571       3.07452562E-03  0.311718047       3.02512199E-04
  0.303030312      0.300000012      0.927302778      0.899986506      0.365244955       2.81702401E-03  0.313347280       2.89723277E-04
  0.292929292      0.300000012      0.924749672      0.896508574      0.366756976       2.56331661E-03  0.314818203       2.77698040E-04
  0.282828271      0.300000012      0.922602355      0.893584788      0.368124068       2.31936551E-03  0.316139102       2.65661627E-04
  0.272727281      0.300000012      0.920837641      0.891181231      0.369348556       2.08994793E-03  0.317312986       2.52727419E-04
  0.262626261      0.300000012      0.919433832      0.889267027      0.370427996       1.87829568E-03  0.318338782       2.38336623E-04
  0.252525240      0.300000012      0.918371677      0.887814462      0.371355921       1.68619049E-03  0.319211841       2.21796334E-04
  0.242424250      0.300000012      0.917634308      0.886800349      0.372123033       1.51435658E-03  0.319924891       2.03441828E-04
  0.232323229      0.300000012      0.917207420      0.886204660      0.372717828       1.36239897E-03  0.320468873       1.82922930E-04
  0.222222224      0.300000012      0.917078316      0.886011481      0.373128474       1.22920028E-03  0.320833921       1.61990523E-04
  0.212121218      0.300000012      0.917235553      0.886205554      0.373343617       1.11340033E-03  0.321010977       1.40976161E-04
  0.202020198      0.300000012      0.917668164      0.886773705      0.373353630       1.01345056E-03  0.320992112       1.21761113E-04
  0.191919193      0.300000012      0.918364704      0.887700975      0.373151869       9.27611196E-04  0.320772558       1.04598701E-04
  0.181818187      0.300000012      0.919312477      0.888970435      0.372735769       8.54314771E-04  0.320351005       8.96118581E-05
  0.171717167      0.300000012      0.920496464      0.890562594      0.372107565       7.91716215E-04  0.319730639       7.70576298E-05
  0.161616161      0.300000012      0.921899796      0.892453790      0.371274889       7.38113129E-04  0.318919748       6.56843185E-05
  0.151515156      0.300000012      0.923502624      0.894618452      0.370250911       6.91722031E-04  0.317931116       5.63301146E-05
  0.141414136      0.300000012      0.925283492      0.897026956      0.369053602       6.50900532E-04  0.316782206       4.77656722E-05
  0.131313130      0.300000012      0.927220047      0.899649501      0.367705017       6.14307355E-04  0.315493852       4.01027501E-05
  0.121212125      0.300000012      0.929288626      0.902454615      0.366229802       5.80894644E-04  0.314089090       3.33525240E-05
  0.111111112      0.300000012      0.931465924      0.905411065      0.364654154       5.49715071E-04  0.312592268       2.77496874E-05
  0.101010099      0.300000012      0.933728933      0.908488333      0.363005072       5.20105532E-04  0.311028242       2.35475600E-05
   9.09090936E-02  0.300000012      0.936056137      0.911656976      0.361309052       4.91399376E-04  0.309421450       2.02357769E-05
   8.08080807E-02  0.300000012      0.938427389      0.914890051      0.359592497       4.63157776E-04  0.307795912       1.83135271E-05
   7.07070678E-02  0.300000012      0.940824509      0.918162167      0.357879400       4.35511232E-04  0.306173533       1.68904662E-05
   6.06060624E-02  0.300000012      0.943231583      0.921451151      0.356189311       4.09487431E-04  0.304572165       1.52662396E-05
   5.05050495E-02  0.300000012      0.945634842      0.924738467      0.354534984       3.87106324E-04  0.303003460       1.39996409E-05
   4.04040404E-02  0.300000012      0.948023140      0.928008199      0.352921635       3.70022230E-04  0.301472723       1.22431666E-05
   3.03030312E-02  0.300000012      0.950387478      0.931247830      0.351349831       3.58144665E-04  0.299980968       9.84221697E-06
   2.02020202E-02  0.300000012      0.952719629      0.934446096      0.349822849       3.47754889E-04  0.298531264       7.08550215E-06
   1.01010101E-02  0.300000012      0.955005646      0.937583745      0.348363817       3.25127039E-04  0.297144145       4.04380262E-06
   0.00000000      0.289655179      0.956758201      0.939991236      0.347186714       1.68780680E-04  0.296031773       1.67265534E-06
   0.00000000      0.279310346      0.956800282      0.940049112      0.347023875       1.20874938E-04  0.295890331       1.67638063E-06
   0.00000000      0.268965513      0.956833541      0.940094888      0.346904039       9.13511540E-05  0.295786053       1.73039734E-06
   0.00000000      0.258620679      0.956863225      0.940135598      0.346808225       6.86331987E-05  0.295702547       1.56648457E-06
   0.00000000      0.248275861      0.956891239      0.940174043      0.346728265       4.91893152E-05  0.295632631       1.51619315E-06
   0.00000000      0.237931028      0.956918538      0.940211833      0.346660256       3.16622099E-05  0.295572937       1.74716115E-06
   0.00000000      0.227586210      0.956946433      0.940249979      0.346601039       1.55437356E-05  0.295520753       1.48452818E-06
   0.00000000      0.217241377      0.956975222      0.940289438      0.346548527       5.57869498E-07  0.295474231       1.34296715E-06
   0.00000000      0.206896558      0.957005680      0.940331280      0.346500278      -1.31192428E-05  0.295431226       1.29453838E-06
   0.00000000      0.196551725      0.957038581      0.940376580      0.346453905      -2.53856542E-05  0.295389652       1.30198896E-06
   0.00000000      0.186206892      0.957074583      0.940426111      0.346407264      -3.62090359E-05  0.295347661       1.37835741E-06
   0.00000000      0.175862074      0.957114995      0.940481484      0.346357167      -4.52172790E-05  0.295302480       1.09896064E-06
   0.00000000      0.165517241      0.957160175      0.940543413      0.346301049      -5.25563373E-05  0.295251876       8.30739737E-07
   0.00000000      0.155172408      0.957210541      0.940612733      0.346236736      -5.82736029E-05  0.295193940       9.03382897E-07
   0.00000000      0.144827589      0.957266808      0.940689981      0.346162111      -6.26297260E-05  0.295126885       7.48783350E-07
   0.00000000      0.134482756      0.957328856      0.940775335      0.346076220      -6.63321698E-05  0.295049846       7.15255737E-07
   0.00000000      0.124137931      0.957395971      0.940867484      0.345979363      -6.99716838E-05  0.294963121       5.10364771E-07
   0.00000000      0.113793105      0.957467377      0.940965593      0.345873594      -7.46104415E-05  0.294868618       4.09781933E-07
   0.00000000      0.103448279      0.957541168      0.941066980      0.345763028      -8.18169501E-05  0.294769794       1.91852450E-07
   0.00000000       9.31034461E-02  0.957614720      0.941168129      0.345654458      -9.30687020E-05  0.294672728       1.65775418E-07
   0.00000000       8.27586204E-02  0.957684815      0.941264570      0.345557243      -1.09733635E-04  0.294585586       1.86264515E-07
   0.00000000       7.24137947E-02  0.957747638      0.941350877      0.345483214      -1.33179172E-04  0.294518620       1.86264515E-08
   0.00000000       6.20689653E-02  0.957798481      0.941420972      0.345446587      -1.64354788E-04  0.294484258       1.19209290E-07
   0.00000000       5.17241396E-02  0.957832754      0.941468060      0.345463127      -2.03442498E-04  0.294496268       6.33299351E-08
   0.00000000       4.13793102E-02  0.957845509      0.941485524      0.345549405      -2.48940632E-04  0.294569075      -5.58793545E-08
   0.00000000       3.10344826E-02  0.957832634      0.941467822      0.345721215      -2.96488666E-04  0.294716358      -5.58793545E-09
   0.00000000       2.06896551E-02  0.957790911      0.941410363      0.345992088      -3.36153025E-04  0.294949919      -4.09781933E-08
   0.00000000       1.03448275E-02  0.957719803      0.941312730      0.346371472      -3.45741137E-04  0.295277685       1.82539225E-07
   1.01942774E-02  -1.06002917E-05  0.957708597      0.941297293      0.346509010      -5.38413064E-04  0.295395821       1.17346644E-07
   2.03885511E-02  -4.05888240E-05  0.957759082      0.941366792      0.346465766      -1.08324899E-03  0.295356899       2.17929482E-07
   3.05827484E-02  -8.74972393E-05  0.957805693      0.941431463      0.346347570      -1.56585872E-03  0.295254767       7.56233931E-07
   4.07768898E-02  -1.49138228E-04  0.957857847      0.941503823      0.346146017      -1.97873102E-03  0.295081466       1.42492354E-06
   5.09709269E-02  -2.23550553E-04  0.957935631      0.941612482      0.345840514      -2.32845685E-03  0.294817835       3.14414501E-06
   6.11648858E-02  -3.08956922E-04  0.958063900      0.941791117      0.345406681      -2.62207678E-03  0.294441611       5.36441803E-06
   7.13587478E-02  -4.03728453E-04  0.958269417      0.942076504      0.344818920      -2.86454032E-03  0.293929219       8.02055001E-06
   8.15525427E-02  -5.06357115E-04  0.958578408      0.942504704      0.344051003      -3.05909524E-03  0.293256760       1.11069530E-05
   9.17462707E-02  -6.15430705E-04  0.959016025      0.943110526      0.343075216      -3.20706563E-03  0.292399049       1.46906823E-05
  0.101939946      -7.29613879E-04  0.959605873      0.943925917      0.341862977      -3.30908038E-03  0.291330457       1.80508941E-05
  0.112133577      -8.47629446E-04  0.960368454      0.944980085      0.340385497      -3.36511433E-03  0.290025294       2.21431255E-05
  0.122327171      -9.68243345E-04  0.961321592      0.946298182      0.338615507      -3.37526388E-03  0.288459450       2.72523612E-05
  0.132520750      -1.09024998E-03  0.962479591      0.947900236      0.336528301      -3.33902752E-03  0.286611348       3.33897769E-05
  0.142714337      -1.21245917E-03  0.963849843      0.949797690      0.334104955      -3.25573073E-03  0.284464866       4.14103270E-05
  0.152907923      -1.33368257E-03  0.965430439      0.951989472      0.331336886      -3.12406779E-03  0.282013237       5.23831695E-05
  0.163101539      -1.45272142E-03  0.967204273      0.954453230      0.328232706      -2.94167618E-03  0.279265344       6.71315938E-05
  0.173295200      -1.56835280E-03  0.969132483      0.957135320      0.324826628      -2.70536914E-03  0.276253372       8.50278884E-05
  0.183488905      -1.67931605E-03  0.971147954      0.959942639      0.321186841      -2.41158460E-03  0.273039848       1.05293468E-04
  0.193682685      -1.78429752E-03  0.973153055      0.962739110      0.317419380      -2.05714465E-03  0.269721031       1.26654282E-04
  0.203876525      -1.88191328E-03  0.975025117      0.965352654      0.313662887      -1.64059515E-03  0.266421914       1.47036277E-04
  0.214070454      -1.97069068E-03  0.976630270      0.967595816      0.310073107      -1.16341864E-03  0.263282061       1.65157020E-04
  0.224264458      -2.04904471E-03  0.977844715      0.969294667      0.306796968      -6.29851420E-04  0.260432392       1.79547817E-04
  0.234458551      -2.11525219E-03  0.978578568      0.970324099      0.303944260      -4.62513417E-05  0.257970124       1.90701336E-04
  0.244652733      -2.16741930E-03  0.978793561      0.970630288      0.301565140       5.81052271E-04  0.255939066       1.98723748E-04
  0.254846990      -2.20344099E-03  0.978509247      0.970242143      0.299640387       1.24832173E-03  0.254321158       2.05468386E-04
  0.265041292      -2.22095218E-03  0.977797210      0.969260275      0.298086524       1.95653504E-03  0.253041595       2.12092884E-04
  0.275235593      -2.21726228E-03  0.976764262      0.967834294      0.296774626       2.71276152E-03  0.251985341       2.19530426E-04
  0.285429865      -2.18927371E-03  0.975530326      0.966131926      0.295555264       3.53054609E-03  0.251019716       2.28770077E-04
  0.295624018      -2.13337177E-03  0.974206269      0.964307845      0.294284135       4.43040673E-03  0.250017077       2.40410678E-04
  0.305817962      -2.04527588E-03  0.972876608      0.962479055      0.292843103       5.43883210E-03  0.248873770       2.54284590E-04
  0.316011488      -1.91983546E-03  0.971588612      0.960711598      0.291152686       6.58902014E-03  0.247521356       2.70927325E-04
  0.326204360      -1.75073801E-03  0.970352232      0.959019125      0.289173573       7.92105682E-03  0.245928288       2.90378928E-04
  0.336396307      -1.53008103E-03  0.969147503      0.957373679      0.286897004       9.48523730E-03  0.244091958       3.12373042E-04
  0.346586645      -1.24772848E-03  0.967936039      0.955722630      0.284328669       1.13482391E-02  0.242024690       3.37414443E-04
  0.356774658      -8.90274358E-04  0.966677666      0.954010606      0.281467944       1.36044268E-02  0.239737466       3.65726650E-04
  0.366958946      -4.39326104E-04  0.965343237      0.952196658      0.278287083       1.64153986E-02  0.237225205       3.96519899E-04
  0.377137065       1.33766516E-04  0.963937223      0.950288236      0.274751872       2.05165315E-02  0.234520495       4.30818647E-04
  0.387299746       9.32033930E-04  0.962357283      0.948142469      0.271433651       2.67078653E-02  0.232232645       4.66827303E-04
  0.397434235       2.03104783E-03  0.960402012      0.945482492      0.268947184       3.46252844E-02  0.230978996       5.04769385E-04
  0.407523632       3.48527054E-03  0.957993984      0.942205667      0.267532706       4.41856012E-02  0.231081575       5.47561795E-04
  0.417543113       5.36030158E-03  0.955048025      0.938202143      0.267534256       5.58199435E-02  0.233041301       6.01232052E-04
  0.427456856       7.73026003E-03  0.951350868      0.933190942      0.269743204       7.01136962E-02  0.237830877       6.75829127E-04
  0.437217921       1.06651187E-02  0.946482658      0.926621199      0.275708646       8.75928402E-02  0.247099683       7.93287531E-04
  0.446780443       1.41935814E-02  0.939708054      0.917527735      0.288169444      0.107979000      0.263208777       9.87935811E-04
  0.456144422       1.82216074E-02  0.929930627      0.904460967      0.311079890      0.128071636      0.288295478       1.28730759E-03
  0.465438336       2.24102195E-02  0.916236103      0.886208415      0.347007632      0.138783216      0.321167201       1.67050585E-03
  0.474928796       2.61229333E-02  0.899781644      0.864349127      0.389897704      0.127410874      0.353705913       2.06593797E-03
  0.484786808       2.86871437E-02  0.884483099      0.844166517      0.424201697       9.09172222E-02  0.375311196       2.44715065E-03
  0.494905144       2.98680626E-02  0.873407900      0.829772532      0.439534724       4.32579182E-02  0.382958204       2.88995355E-03
  0.505094886       2.98680626E-02  0.865822792      0.820174813      0.438848674      -3.37241683E-03  0.381087661       3.46723199E-03
  0.515213192       2.86871418E-02  0.859701157      0.812835932      0.425575078      -5.09665981E-02  0.372543305       4.41261381E-03
  0.525071204       2.61229314E-02  0.855424464      0.808251023      0.398702443      -9.66029689E-02  0.356689483       5.73790818E-03
  0.534561634       2.24102195E-02  0.854815662      0.808406115      0.362506092     -0.124956951      0.333236754       6.92643225E-03
  0.543855608       1.82216056E-02  0.857618392      0.812648416      0.326486647     -0.127288491      0.304245085       7.57775456E-03
  0.553219557       1.41935805E-02  0.861030102      0.817353368      0.297450125     -0.111075543      0.275423735       7.79241323E-03
  0.562782109       1.06651178E-02  0.862794340      0.819700181      0.277010202      -8.93450230E-02  0.252375901       7.79384375E-03
  0.572543144       7.73025956E-03  0.862678528      0.819500983      0.263562232      -6.95407614E-02  0.236364886       7.73875415E-03
  0.582456887       5.36030112E-03  0.861314833      0.817685485      0.254907370      -5.35761528E-02  0.225939870       7.73574412E-03
  0.592476368       3.48527008E-03  0.859297752      0.815090418      0.249519840      -4.11575958E-02  0.219451815       7.83944875E-03