 title = "grid"
                                   variables = "x","y","rho","P","u","v","M","S"
 zone n=        3000  e =        5742  et=quadrilateral, f=fepoint
   0.00000000       0.00000000      0.956618845      0.939797997      0.350594372      -2.72604899E-04  0.298946381      -9.31322575E-09
   1.00000000       0.00000000      0.946656048      0.935238421      0.278017163       1.07622473E-03  0.236399084       9.79345851E-03
   1.00000000      0.300000012      0.947736204      0.931783259      0.296884120      -3.09282535E-04  0.253051847       4.49563190E-03
   0.00000000      0.300000012      0.955768704      0.938632429      0.359836549      -3.70493246E-04  0.306881070       3.73832881E-06
   1.00000000       1.03448275E-02  0.946945846      0.935172021      0.281269282       1.00890442E-03  0.239209235       9.29393806E-03
   1.00000000       2.06896551E-02  0.947442234      0.935341120      0.285098284       7.44318764E-04  0.242506519       8.74108076E-03
   1.00000000       3.10344826E-02  0.947839916      0.935490191      0.287670642       3.61913932E-04  0.244725809       8.31289776E-03
   1.00000000       4.13793102E-02  0.948184013      0.935629785      0.289159656      -7.03104815E-05  0.246018633       7.95396604E-03
   1.00000000       5.17241396E-02  0.948490441      0.935755491      0.289711118      -5.42687718E-04  0.246511504       7.63593428E-03
   1.00000000       6.20689653E-02  0.948757887      0.935854018      0.289454877      -1.06575806E-03  0.246316478       7.34648108E-03
   1.00000000       7.24137947E-02  0.948975861      0.935908556      0.288521290      -1.65076158E-03  0.245545402       7.08314590E-03
   1.00000000       8.27586204E-02  0.949134052      0.935903192      0.287048578      -2.30033952E-03  0.244316980       6.84410706E-03
   1.00000000       9.31034461E-02  0.949224710      0.935826838      0.285185486      -3.00500565E-03  0.242758393       6.62876479E-03
   1.00000000      0.103448279      0.949245453      0.935674429      0.283088326      -3.74368718E-03  0.241003215       6.43530861E-03
   1.00000000      0.113793105      0.949200630      0.935449719      0.280914664      -4.48621204E-03  0.239185333       6.26122020E-03
   1.00000000      0.124137931      0.949100196      0.935163260      0.278812647      -5.19695459E-03  0.237430334       6.10309280E-03
   1.00000000      0.134482756      0.948958099      0.934830606      0.276912689      -5.83946938E-03  0.235848144       5.95692359E-03
   1.00000000      0.144827589      0.948790252      0.934470892      0.275319517      -6.38042064E-03  0.234526411       5.81969880E-03
   1.00000000      0.155172408      0.948612213      0.934102178      0.274109185      -6.79285917E-03  0.233528584       5.68785332E-03
   1.00000000      0.165517241      0.948436797      0.933741152      0.273328245      -7.05848588E-03  0.232892871       5.56017272E-03
   1.00000000      0.175862074      0.948274076      0.933400571      0.272997916      -7.16797961E-03  0.232636511       5.43552078E-03
   1.00000000      0.186206892      0.948130608      0.933089495      0.273119777      -7.12050311E-03  0.232760400       5.31407446E-03
   1.00000000      0.196551725      0.948010206      0.932812750      0.273682088      -6.92213373E-03  0.233254746       5.19520976E-03
   1.00000000      0.206896558      0.947914183      0.932572424      0.274666429      -6.58449205E-03  0.234104380       5.07937185E-03
   1.00000000      0.217241377      0.947842896      0.932368398      0.276053220      -6.12288108E-03  0.235293537       4.96585853E-03
   1.00000000      0.227586210      0.947795928      0.932198584      0.277825266      -5.55513240E-03  0.236808717       4.85309213E-03
   1.00000000      0.237931028      0.947771609      0.932059705      0.279970258      -4.90010576E-03  0.238640621       4.74002399E-03
   1.00000000      0.248275861      0.947767675      0.931948721      0.282479465      -4.17668745E-03  0.240782693       4.62676398E-03
   1.00000000      0.258620679      0.947778761      0.931861937      0.285343498      -3.40239587E-03  0.243227437       4.51719575E-03
   1.00000000      0.268965513      0.947793305      0.931794763      0.288545966      -2.59123161E-03  0.245960414       4.42364253E-03
   1.00000000      0.279310346      0.947787285      0.931741774      0.292060435      -1.74859783E-03  0.248956904       4.37568314E-03
   1.00000000      0.289655179      0.947710514      0.931691945      0.295893461      -8.56896746E-04  0.252217293       4.43561003E-03
  0.989898980      0.300000012      0.947382927      0.931227803      0.297728449      -5.28156990E-04  0.253800124       4.42135148E-03
  0.979797959      0.300000012      0.946439087      0.929790914      0.299422204      -4.57695074E-04  0.255313724       4.27256525E-03
  0.969696999      0.300000012      0.945321083      0.928116143      0.301362276      -4.02450154E-04  0.257047743       4.12449799E-03
  0.959595978      0.300000012      0.944018841      0.926189959      0.303564787      -3.56001023E-04  0.259016842       3.97689268E-03
  0.949494958      0.300000012      0.942535579      0.924016118      0.306024730      -3.14589619E-04  0.261217237       3.82849015E-03
  0.939393938      0.300000012      0.940890968      0.921622574      0.308714837      -2.75078317E-04  0.263625115       3.67968902E-03
  0.929292917      0.300000012      0.939127982      0.919069409      0.311580151      -2.34407911E-04  0.266191483       3.53127532E-03
  0.919191897      0.300000012      0.937318265      0.916454732      0.314531863      -1.89006605E-04  0.268836826       3.38272750E-03
  0.909090936      0.300000012      0.935562432      0.913917363      0.317446113      -1.35623399E-04  0.271449447       3.23521346E-03
  0.898989916      0.300000012      0.933985889      0.911629021      0.320169836      -7.26087019E-05  0.273890823       3.08938697E-03
  0.888888896      0.300000012      0.932723999      0.909775853      0.322538525      -2.65762850E-07  0.276011348       2.94728950E-03
  0.878787875      0.300000012      0.931902111      0.908527970      0.324401557       7.82471325E-05  0.277673841       2.80891731E-03
  0.868686855      0.300000012      0.931610286      0.908008873      0.325652063       1.57396906E-04  0.278780192       2.67584622E-03
  0.858585835      0.300000012      0.931885302      0.908268988      0.326249272       2.30763995E-04  0.279292732       2.54903361E-03
  0.848484874      0.300000012      0.932702243      0.909275353      0.326227218       2.92423210E-04  0.279241621       2.42966786E-03
  0.838383853      0.300000012      0.933978558      0.910915792      0.325689167       3.38142272E-04  0.278720468       2.31773034E-03
  0.828282833      0.300000012      0.935586929      0.913017213      0.324790567       3.65765998E-04  0.277870387       2.21312791E-03
  0.818181813      0.300000012      0.937372923      0.915369809      0.323716342       3.75433039E-04  0.276859105       2.11661682E-03
  0.808080792      0.300000012      0.939173877      0.917751372      0.322658241       3.68663808E-04  0.275860488       2.02776864E-03
  0.797979772      0.300000012      0.940834999      0.919948995      0.321796954       3.48045229E-04  0.275038183       1.94542110E-03
  0.787878811      0.300000012      0.942219496      0.921775162      0.321288228       3.16521735E-04  0.274532974       1.86988525E-03
  0.777777791      0.300000012      0.943218529      0.923079729      0.321254224       2.77241081E-04  0.274455249       1.80051662E-03
  0.767676771      0.300000012      0.943755150      0.923756182      0.321778864       2.33002444E-04  0.274880916       1.73684396E-03
  0.757575750      0.300000012      0.943786860      0.923744977      0.322906315       1.86416481E-04  0.275850326       1.67767331E-03
  0.747474730      0.300000012      0.943304718      0.923033476      0.324642092       1.39608790E-04  0.277369112       1.62247010E-03
  0.737373710      0.300000012      0.942330599      0.921651304      0.326956213       9.42722036E-05  0.279411256       1.57046132E-03
  0.727272749      0.300000012      0.940912485      0.919664204      0.329788566       5.16367400E-05  0.281923681       1.52050704E-03
  0.717171729      0.300000012      0.939118683      0.917166352      0.333055466       1.22665460E-05  0.284831971       1.47237629E-03
  0.707070708      0.300000012      0.937031209      0.914270520      0.336657703      -2.37390104E-05  0.288047582       1.42540038E-03
  0.696969688      0.300000012      0.934738934      0.911098540      0.340487063      -5.66613489E-05  0.291473508       1.37898326E-03
  0.686868668      0.300000012      0.932331502      0.907773137      0.344434053      -8.72296660E-05  0.295011282       1.33282691E-03
  0.676767647      0.300000012      0.929895103      0.904412389      0.348393619      -1.16436837E-04  0.298565716       1.28708780E-03
  0.666666687      0.300000012      0.927508652      0.901123345      0.352269739      -1.45610102E-04  0.302049577       1.24127790E-03
  0.656565666      0.300000012      0.925241053      0.898000121      0.355978817      -1.76176982E-04  0.305386215       1.19625032E-03
  0.646464646      0.300000012      0.923151731      0.895122409      0.359451205      -2.09352787E-04  0.308511496       1.15149468E-03
  0.636363626      0.300000012      0.921288967      0.892554998      0.362632066      -2.46207899E-04  0.311374307       1.10696629E-03
  0.626262605      0.300000012      0.919689953      0.890348494      0.365481287      -2.87405535E-04  0.313936621       1.06383860E-03
  0.616161644      0.300000012      0.918382645      0.888539672      0.367972285      -3.33258358E-04  0.316172928       1.02162734E-03
  0.606060624      0.300000012      0.917385578      0.887153566      0.370090395      -3.83032573E-04  0.318068445       9.81230289E-04
  0.595959604      0.300000012      0.916708887      0.886203408      0.371832073      -4.36080591E-04  0.319618642       9.42695886E-04
  0.585858583      0.300000012      0.916355431      0.885692537      0.373203188      -4.91444254E-04  0.320827931       9.05904919E-04
  0.575757563      0.300000012      0.916320741      0.885614932      0.374216229      -5.47159754E-04  0.321706891       8.71282071E-04
  0.565656543      0.300000012      0.916594982      0.885957122      0.374886960      -6.00126223E-04  0.322269529       8.38663429E-04
  0.555555582      0.300000012      0.917164147      0.886699915      0.375230461      -6.46644155E-04  0.322529852       8.07646662E-04
  0.545454562      0.300000012      0.918010533      0.887819409      0.375259697      -6.83451595E-04  0.322500318       7.78026879E-04
  0.535353541      0.300000012      0.919114351      0.889289320      0.374985099      -7.09120417E-04  0.322191477       7.50016421E-04
  0.525252521      0.300000012      0.920454085      0.891080737      0.374417275      -7.25934166E-04  0.321614176       7.23194331E-04
  0.515151501      0.300000012      0.922006547      0.893162310      0.373572797      -7.39927287E-04  0.320784897       6.97158277E-04
  0.505050480      0.300000012      0.923747540      0.895502031      0.372477621      -7.57244066E-04  0.319727778       6.72303140E-04
  0.494949490      0.300000012      0.925656080      0.898071408      0.371160805      -7.78682763E-04  0.318469971       6.47842884E-04
  0.484848499      0.300000012      0.927714825      0.900847495      0.369646579      -8.02337250E-04  0.317033619       6.23952597E-04
  0.474747479      0.300000012      0.929909766      0.903811753      0.367954671      -8.29146069E-04  0.315437138       6.00658357E-04
  0.464646459      0.300000012      0.932229102      0.906948626      0.366106868      -8.61719716E-04  0.313700378       5.77848405E-04
  0.454545468      0.300000012      0.934665740      0.910248995      0.364124745      -8.99193401E-04  0.311842680       5.55709004E-04
  0.444444448      0.300000012      0.937218726      0.913711846      0.362022161      -9.37385019E-04  0.309876353       5.34024090E-04
  0.434343427      0.300000012      0.939890325      0.917341053      0.359803528      -9.72588954E-04  0.307805359       5.12935221E-04
  0.424242437      0.300000012      0.942684174      0.921142519      0.357467622      -1.00310904E-03  0.305628687       4.93038446E-04
  0.414141417      0.300000012      0.945603073      0.925120115      0.355012476      -1.02893508E-03  0.303344995       4.73612919E-04
  0.404040396      0.300000012      0.948646963      0.929274499      0.352439255      -1.05093222E-03  0.300955623       4.54880297E-04
  0.393939406      0.300000012      0.951812565      0.933602095      0.349753380      -1.07005145E-03  0.298465908       4.37021255E-04
  0.383838385      0.300000012      0.955091894      0.938092172      0.346965611      -1.08717720E-03  0.295885950       4.19769436E-04
  0.373737365      0.300000012      0.958473206      0.942728460      0.344091773      -1.10293890E-03  0.293230534       4.02120873E-04
  0.363636374      0.300000012      0.961939394      0.947487772      0.341152668      -1.11784856E-03  0.290518701       3.84133309E-04
  0.353535354      0.300000012      0.965468943      0.952340186      0.338173330      -1.13266322E-03  0.287773550       3.64910811E-04
  0.343434334      0.300000012      0.969035804      0.957249939      0.335183859      -1.14842108E-03  0.285022348       3.44479457E-04
  0.333333343      0.300000012      0.972610772      0.962176144      0.332218021      -1.16535672E-03  0.282295555       3.22074629E-04
  0.323232323      0.300000012      0.976161301      0.967074215      0.329312444      -1.18373637E-03  0.279626191       2.98383646E-04
  0.313131303      0.300000012      0.979652345      0.971895278      0.326505750      -1.20351219E-03  0.277048618       2.73316167E-04
  0.303030312      0.300000012      0.983046293      0.976587713      0.323837727      -1.22449687E-03  0.274598300       2.47960910E-04
  0.292929292      0.300000012      0.986305177      0.981098711      0.321348280      -1.24634721E-03  0.272310585       2.23032665E-04
  0.282828271      0.300000012      0.989389241      0.985373259      0.319076359      -1.26849127E-03  0.270219862       1.99635047E-04
  0.272727281      0.300000012      0.992260158      0.989357114      0.317059010      -1.29013660E-03  0.268358856       1.77995767E-04
  0.262626261      0.300000012      0.994881094      0.992998064      0.315329850      -1.31018111E-03  0.266757220       1.58271287E-04
  0.252525240      0.300000012      0.997217655      0.996247232      0.313917488      -1.32762629E-03  0.265440255       1.40919932E-04
  0.242424250      0.300000012      0.999240220      0.999062359      0.312843591      -1.34119065E-03  0.264427066       1.26038765E-04
  0.232323229      0.300000012       1.00092626       1.00141001      0.312121987      -1.34967035E-03  0.263729960       1.12815120E-04
  0.222222224      0.300000012       1.00226033       1.00326788      0.311756968      -1.35193975E-03  0.263352871       1.01679121E-04
  0.212121218      0.300000012       1.00323629       1.00462604      0.311742514      -1.34693866E-03  0.263290673       9.18074511E-05
  0.202020198      0.300000012       1.00385678       1.00548756      0.312063187      -1.33386475E-03  0.263529986       8.33820086E-05
  0.191919193      0.300000012       1.00413167       1.00586593      0.312695384      -1.31249451E-03  0.264050215       7.63426069E-05
  0.181818187      0.300000012       1.00407636       1.00578308      0.313610435      -1.28294714E-03  0.264826417       7.11379107E-05
  0.171717167      0.300000012       1.00370848       1.00526273      0.314778656      -1.24582881E-03  0.265832841       6.66903798E-05
  0.161616161      0.300000012       1.00304282       1.00432575      0.316173375      -1.20209961E-03  0.267046481       6.28835987E-05
  0.151515156      0.300000012       1.00208867       1.00298536      0.317774951      -1.15320215E-03  0.268450528       5.97744947E-05
  0.141414136      0.300000012       1.00084651       1.00124204      0.319573522      -1.10044598E-03  0.270037174       5.66326780E-05
  0.131313130      0.300000012      0.999307632      0.999084115      0.321569026      -1.04511320E-03  0.271807253       5.33120765E-05
  0.121212125      0.300000012      0.997454941      0.996488690      0.323770165      -9.88484942E-04  0.273769647       5.01654577E-05
  0.111111112      0.300000012      0.995267808      0.993427396      0.326190203      -9.31881077E-04  0.275937438       4.64785844E-05
  0.101010099      0.300000012      0.992727458      0.989875615      0.328842014      -8.76396487E-04  0.278323263       4.27346677E-05
   9.09090936E-02  0.300000012      0.989824235      0.985821068      0.331730813      -8.23065755E-04  0.280933231       3.86727042E-05
   8.08080807E-02  0.300000012      0.986563861      0.981273890      0.334847659      -7.72658095E-04  0.283760458       3.44193541E-05
   7.07070678E-02  0.300000012      0.982973754      0.976273954      0.338163465      -7.25432415E-04  0.286779970       2.99578533E-05
   6.06060624E-02  0.300000012      0.979103863      0.970893145      0.341625959      -6.81275793E-04  0.289945483       2.57035717E-05
   5.05050495E-02  0.300000012      0.975026369      0.965233088      0.345159739      -6.40017039E-04  0.293189853       2.14325264E-05
   4.04040404E-02  0.300000012      0.970829546      0.959417880      0.348672152      -6.01503998E-04  0.296429574       1.75368041E-05
   3.03030312E-02  0.300000012      0.966610372      0.953582108      0.352061331      -5.65805472E-04  0.299572229       1.39884651E-05
   2.02020202E-02  0.300000012      0.962465584      0.947859883      0.355223924      -5.31606551E-04  0.302523553       1.11851841E-05
   1.01010101E-02  0.300000012      0.958492577      0.942383409      0.358049154      -4.85688506E-04  0.305182487       7.76164234E-06
   0.00000000      0.289655179      0.955510378      0.938277006      0.360187650      -1.62310214E-04  0.307197034       3.46824527E-06
   0.00000000      0.279310346      0.955427825      0.938163340      0.360429049       4.91698438E-06  0.307408243       3.23168933E-06
   0.00000000      0.268965513      0.955375612      0.938091397      0.360510409       1.36587914E-04  0.307480991       3.06218863E-06
   0.00000000      0.258620679      0.955344915      0.938049138      0.360465646       2.52104073E-04  0.307444900       3.06405127E-06
   0.00000000      0.248275861      0.955333233      0.938032866      0.360309005       3.56193399E-04  0.307312161       2.77534127E-06
   0.00000000      0.237931028      0.955339730      0.938041508      0.360049278       4.49565094E-04  0.307090372       2.49221921E-06
   0.00000000      0.227586210      0.955363989      0.938074708      0.359694064       5.31820522E-04  0.306785941       2.35438347E-06
   0.00000000      0.217241377      0.955405414      0.938131452      0.359252155       6.01898006E-04  0.306406498       2.12900341E-06
   0.00000000      0.206896558      0.955462992      0.938210428      0.358733445       6.58953039E-04  0.305960536       1.93901360E-06
   0.00000000      0.196551725      0.955535412      0.938309729      0.358149469       7.02368270E-04  0.305457920       1.66893005E-06
   0.00000000      0.186206892      0.955620587      0.938426614      0.357513219       7.31705048E-04  0.304909945       1.38580799E-06
   0.00000000      0.175862074      0.955716312      0.938557923      0.356838286       7.47040787E-04  0.304328293       1.07660890E-06
   0.00000000      0.165517241      0.955819845      0.938700259      0.356138736       7.48806342E-04  0.303725094       1.09151006E-06
   0.00000000      0.155172408      0.955928385      0.938849390      0.355428666       7.37481343E-04  0.303112686       1.01514161E-06
   0.00000000      0.144827589      0.956039250      0.939001679      0.354721755       7.13889138E-04  0.302502751       7.93486834E-07
   0.00000000      0.134482756      0.956149578      0.939153135      0.354031116       6.79016986E-04  0.301906854       5.10364771E-07
   0.00000000      0.124137931      0.956256628      0.939300299      0.353368819       6.33898017E-04  0.301335216       5.34579158E-07
   0.00000000      0.113793105      0.956357896      0.939439416      0.352745891       5.79333981E-04  0.300797611       3.37138772E-07
   0.00000000      0.103448279      0.956450939      0.939567327      0.352172673       5.16229717E-04  0.300302893       3.27825546E-07
   0.00000000       9.31034461E-02  0.956533730      0.939681172      0.351658106       4.45351907E-04  0.299858868       2.81259418E-07
   0.00000000       8.27586204E-02  0.956604421      0.939778388      0.351210415       3.67393455E-04  0.299472570       2.66358256E-07
   0.00000000       7.24137947E-02  0.956661165      0.939856172      0.350837290       2.82916066E-04  0.299150854      -5.02914190E-08
   0.00000000       6.20689653E-02  0.956701934      0.939912379      0.350545496       1.92408334E-04  0.298899412       1.50874257E-07
   0.00000000       5.17241396E-02  0.956725776      0.939945161      0.350341767       9.66524967E-05  0.298724174       1.28522515E-07
   0.00000000       4.13793102E-02  0.956731021      0.939952314      0.350232422      -3.01488171E-06  0.298630625       5.58793545E-08
   0.00000000       3.10344826E-02  0.956716776      0.939932644      0.350223482      -1.03515558E-04  0.298623890      -6.33299351E-08
   0.00000000       2.06896551E-02  0.956682384      0.939885378      0.350321352      -1.97386878E-04  0.298709542       5.58793545E-09
   0.00000000       1.03448275E-02  0.956628501      0.939811349      0.350531518      -2.66889227E-04  0.298892170       8.56816769E-08
   1.01942774E-02  -1.06002917E-05  0.956531346      0.939677835      0.350648314      -4.69699822E-04  0.298997998       1.75088644E-07
   2.03885511E-02  -4.05888240E-05  0.956265450      0.939312220      0.350749046      -9.90981003E-04  0.299101382       2.99885869E-07
   3.05827484E-02  -8.74972393E-05  0.955888510      0.938794076      0.350895017      -1.46999618E-03  0.299250871       4.54485416E-07
   4.07768898E-02  -1.49138228E-04  0.955374539      0.938087881      0.351141989      -1.89478952E-03  0.299495369       9.05245543E-07
   5.09709269E-02  -2.23550553E-04  0.954722404      0.937191904      0.351505846      -2.26985430E-03  0.299848497       1.32992864E-06
   6.11648858E-02  -3.08956922E-04  0.953947246      0.936127484      0.351975262      -2.60074763E-03  0.300299525       2.04704702E-06
   7.13587478E-02  -4.03728453E-04  0.953075111      0.934930146      0.352521390      -2.89181690E-03  0.300822318       2.75298953E-06
   8.15525427E-02  -5.06357115E-04  0.952135980      0.933641493      0.353107840      -3.14577855E-03  0.301383853       3.63960862E-06
   9.17462707E-02  -6.15430705E-04  0.951158345      0.932300806      0.353696913      -3.36337299E-03  0.301950186       4.84287739E-06
  0.101939946      -7.29613879E-04  0.950165570      0.930939734      0.354256481      -3.54446075E-03  0.302492350       5.93438745E-06
  0.112133577      -8.47629446E-04  0.949172199      0.929579020      0.354763120      -3.68789537E-03  0.302989304       7.57724047E-06
  0.122327171      -9.68243345E-04  0.948184788      0.928227484      0.355203778      -3.79268522E-03  0.303429365       9.79751348E-06
  0.132520750      -1.09024998E-03  0.947202265      0.926883638      0.355575234      -3.85805918E-03  0.303809822       1.24648213E-05
  0.142714337      -1.21245917E-03  0.946218550      0.925539613      0.355882347      -3.88419745E-03  0.304135084       1.60671771E-05
  0.152907923      -1.33368257E-03  0.945226371      0.924185097      0.356134921      -3.87206930E-03  0.304414004       2.02879310E-05
  0.163101539      -1.45272142E-03  0.944220364      0.922812581      0.356343746      -3.82311689E-03  0.304656208       2.49072909E-05
  0.173295200      -1.56835280E-03  0.943198979      0.921420395      0.356517971      -3.73891159E-03  0.304869533       3.03275883E-05
  0.183488905      -1.67931605E-03  0.942167461      0.920015156      0.356661260      -3.62067856E-03  0.305056900       3.60161066E-05
  0.193682685      -1.78429752E-03  0.941137850      0.918614030      0.356770813      -3.46928975E-03  0.305215031       4.27141786E-05
  0.203876525      -1.88191328E-03  0.940129578      0.917243302      0.356836438      -3.28456052E-03  0.305334002       5.00939786E-05
  0.214070454      -1.97069068E-03  0.939168751      0.915938973      0.356840312      -3.06572532E-03  0.305396795       5.86360693E-05
  0.224264458      -2.04904471E-03  0.938287497      0.914745390      0.356757492      -2.81096785E-03  0.305379897       6.88992441E-05
  0.234458551      -2.11525219E-03  0.937523365      0.913714230      0.356556475      -2.51754140E-03  0.305253744       8.16583633E-05
  0.244652733      -2.16741930E-03  0.936919391      0.912904382      0.356199622      -2.18153419E-03  0.304983288       9.70773399E-05
  0.254846990      -2.20344099E-03  0.936524332      0.912381291      0.355642617      -1.79774233E-03  0.304527611       1.14358962E-04
  0.265041292      -2.22095218E-03  0.936391294      0.912217259      0.354834616      -1.35958765E-03  0.303839803       1.33514404E-04
  0.275235593      -2.21726228E-03  0.936578810      0.912491381      0.353717506      -8.58504558E-04  0.302866757       1.53634697E-04
  0.285429865      -2.18927371E-03  0.937152088      0.913291216      0.352225333      -2.83724425E-04  0.301548451       1.73132867E-04
  0.295624018      -2.13337177E-03  0.938181639      0.914712965      0.350282609       3.78877710E-04  0.299816728       1.91435218E-04
  0.305817962      -2.04527588E-03  0.939743996      0.916861594      0.347803891       1.14758499E-03  0.297595024       2.08120793E-04
  0.316011488      -1.91983546E-03  0.941922188      0.919852316      0.344691724       2.04746169E-03  0.294796914       2.23547220E-04
  0.326204360      -1.75073801E-03  0.944804490      0.923808515      0.340835422       3.11258668E-03  0.291325718       2.37677246E-04
  0.336396307      -1.53008103E-03  0.948481381      0.928859472      0.336110950       4.39076778E-03  0.287074804       2.52565369E-04
  0.346586645      -1.24772848E-03  0.953042507      0.935134053      0.330379874       5.95059246E-03  0.281928629       2.68669799E-04
  0.356774658      -8.90274358E-04  0.958568871      0.942752779      0.323491335       7.89217744E-03  0.275765926       2.88208947E-04
  0.366958946      -4.39326104E-04  0.965121508      0.951811373      0.315287560       1.03862761E-02  0.268468857       3.13384458E-04
  0.377137065       1.33766516E-04  0.972733974      0.962371647      0.305662662       1.42197609E-02  0.260000050       3.47930938E-04
  0.387299746       9.32033930E-04  0.981226504      0.974199116      0.295297265       2.01886389E-02  0.251054972       3.93150374E-04
  0.397434235       2.03104783E-03  0.990236759      0.986800730      0.284998029       2.77418811E-02  0.242426723       4.48575709E-04
  0.407523632       3.48527054E-03  0.999451935      0.999746740      0.275243789       3.66293713E-02  0.234639749       5.14149317E-04
  0.417543113       5.36030158E-03   1.00843155       1.01242626      0.266751021       4.71547469E-02  0.228489071       5.95025253E-04
  0.427456856       7.73026003E-03   1.01653302       1.02394056      0.260783732       5.97908273E-02  0.225301772       7.01453537E-04
  0.437217921       1.06651187E-02   1.02295744       1.03317344      0.259300351       7.50046372E-02  0.227002040       8.58077779E-04
  0.446780443       1.41935814E-02   1.02678311       1.03884101      0.265180498       9.25943702E-02  0.236006483       1.10274088E-03
  0.456144422       1.82216074E-02   1.02703559       1.03957713      0.282090962      0.109793454      0.254283994       1.46686938E-03
  0.465438336       2.24102195E-02   1.02321899       1.03464746      0.311978012      0.118537620      0.280498475       1.92589033E-03
  0.474928796       2.61229333E-02   1.01690722       1.02619326      0.348495334      0.107546262      0.306840509       2.38388218E-03
  0.484786808       2.86871437E-02   1.01217449       1.01991951      0.376565725       7.43928924E-02  0.323173106       2.78243050E-03
  0.494905144       2.98680626E-02   1.01226056       1.02047122      0.386005938       3.20227556E-02  0.326035678       3.20412777E-03
  0.505094886       2.98680626E-02   1.01684797       1.02749848      0.378809988      -8.34509637E-03  0.318566561       3.73658165E-03
  0.515213192       2.86871418E-02   1.02392650       1.03836811      0.358442754      -4.80106324E-02  0.303511918       4.54768632E-03
  0.525071204       2.61229314E-02   1.03294384       1.05240571      0.325686216      -8.36912245E-02  0.281557739       5.70071302E-03
  0.534561634       2.24102195E-02   1.04424000       1.06987607      0.286180824     -0.102583207      0.253839314       6.93770871E-03
  0.543855608       1.82216056E-02   1.05660307       1.08879948      0.249222249      -9.97294262E-02  0.223490000       7.99286366E-03
  0.553219557       1.41935805E-02   1.06742203       1.10534978      0.221051440      -8.39913413E-02  0.196395323       8.81685317E-03
  0.562782109       1.06651178E-02   1.07532692       1.11746061      0.202898487      -6.63647801E-02  0.176986262       9.38414782E-03
  0.572543144       7.73025956E-03   1.08074951       1.12560952      0.192688733      -5.14665581E-02  0.165167555       9.60792229E-03
  0.582456887       5.36030112E-03   1.08446395       1.13090634      0.187565088      -3.96116003E-02  0.158656299       9.49927419E-03
  0.592476368       3.48527008E-03   1.08691788       1.13413990      0.185302183      -3.00983042E-02  0.155323178       9.19011608E-03