 title = "grid"
                                   variables = "x","y","rho","P","u","v","M","S"
 zone n=        3000  e =        5742  et=quadrilateral, f=fepoint
   0.00000000       0.00000000      0.968410909      0.956056654      0.297942132      -1.50648644E-04  0.253428817       2.01165676E-07
   1.00000000       0.00000000      0.946676016      0.937231362      0.288866401       2.28676668E-04  0.245363757       1.18926289E-02
   1.00000000      0.300000012      0.947594881      0.929879963      0.392596275      -7.62682874E-04  0.334950715       2.65967846E-03
   0.00000000      0.300000012      0.956325352      0.939394891      0.351443648       2.60495610E-04  0.299688786       6.05359674E-07
   1.00000000       1.03448275E-02  0.947217286      0.936783373      0.293318182      -1.33029243E-03  0.249278396       1.06142219E-02
   1.00000000       2.06896551E-02  0.948097885      0.936561227      0.299390107      -3.14880535E-03  0.254598588       9.07613710E-03
   1.00000000       3.10344826E-02  0.948587418      0.936238527      0.305309772      -4.75260569E-03  0.259761453       8.00886005E-03
   1.00000000       4.13793102E-02  0.948816717      0.935840249      0.311071813      -6.14183629E-03  0.264771700       7.24500604E-03
   1.00000000       5.17241396E-02  0.948875487      0.935389936      0.316647828      -7.31809810E-03  0.269610435       6.67699054E-03
   1.00000000       6.20689653E-02  0.948822975      0.934908688      0.321997166      -8.28442350E-03  0.274245650       6.23986125E-03
   1.00000000       7.24137947E-02  0.948700249      0.934414804      0.327080071      -9.04711429E-03  0.278644711       5.89250773E-03
   1.00000000       8.27586204E-02  0.948535860      0.933923066      0.331864029      -9.61569697E-03  0.282780707       5.60870767E-03
   1.00000000       9.31034461E-02  0.948349655      0.933444440      0.336328745      -1.00028757E-02  0.286636829       5.37094288E-03
   1.00000000      0.103448279      0.948155582      0.932986379      0.340466172      -1.02229584E-02  0.290206939       5.16663864E-03
   1.00000000      0.113793105      0.947963297      0.932553709      0.344281375      -1.02914404E-02  0.293496072       4.98671643E-03
   1.00000000      0.124137931      0.947780073      0.932149231      0.347790062      -1.02236643E-02  0.296518505       4.82353568E-03
   1.00000000      0.134482756      0.947610378      0.931774735      0.351017326      -1.00346962E-02  0.299296319       4.67242859E-03
   1.00000000      0.144827589      0.947457254      0.931431115      0.353994876      -9.73849837E-03  0.301857293       4.52978350E-03
   1.00000000      0.155172408      0.947322547      0.931118309      0.356759638      -9.34836548E-03  0.304233640       4.39299829E-03
   1.00000000      0.165517241      0.947207272      0.930836499      0.359351337      -8.87680519E-03  0.306459844       4.26063314E-03
   1.00000000      0.175862074      0.947112083      0.930585444      0.361811370      -8.33550841E-03  0.308571607       4.13160212E-03
   1.00000000      0.186206892      0.947037399      0.930364072      0.364182204      -7.73583865E-03  0.310605973       4.00406681E-03
   1.00000000      0.196551725      0.946983159      0.930171788      0.366506308      -7.08870962E-03  0.312599450       3.87760252E-03
   1.00000000      0.206896558      0.946949542      0.930007398      0.368825853      -6.40497636E-03  0.314588636       3.75051238E-03
   1.00000000      0.217241377      0.946937025      0.929869115      0.371183008      -5.69568621E-03  0.316610157       3.62033211E-03
   1.00000000      0.227586210      0.946945965      0.929755032      0.373618871      -4.97245276E-03  0.318699628       3.48440371E-03
   1.00000000      0.237931028      0.946976185      0.929663301      0.376173139      -4.24763141E-03  0.320891440       3.34104709E-03
   1.00000000      0.248275861      0.947025776      0.929591477      0.378882587      -3.53448559E-03  0.323217124       3.19046341E-03
   1.00000000      0.258620679      0.947091579      0.929536581      0.381776571      -2.84710992E-03  0.325701743       3.03419121E-03
   1.00000000      0.268965513      0.947165668      0.929495394      0.384872824      -2.19939300E-03  0.328359604       2.88032740E-03
   1.00000000      0.279310346      0.947232544      0.929462671      0.388174713      -1.60172686E-03  0.331191570       2.74627283E-03
   1.00000000      0.289655179      0.947263181      0.929426730      0.391693532      -1.05032173E-03  0.334204018       2.66232342E-03
  0.989898980      0.300000012      0.946033895      0.927685678      0.393690050      -8.55207269E-04  0.336003929       2.60533206E-03
  0.979797959      0.300000012      0.942319214      0.922492623      0.396137536      -7.84218777E-04  0.338376671       2.49977782E-03
  0.969696999      0.300000012      0.938640118      0.917363405      0.398627818      -7.09640444E-04  0.340787083       2.40080804E-03
  0.959595978      0.300000012      0.935130060      0.912480593      0.401020736      -6.26294583E-04  0.343105346       2.30907649E-03
  0.949494958      0.300000012      0.931917965      0.908018887      0.403171986      -5.35685802E-04  0.345197886       2.22462043E-03
  0.939393938      0.300000012      0.929102361      0.904110253      0.404969275      -4.43060184E-04  0.346959978       2.14691088E-03
  0.929292917      0.300000012      0.926733077      0.900819898      0.406355768      -3.54644319E-04  0.348338038       2.07565352E-03
  0.919191897      0.300000012      0.924809992      0.898145556      0.407332420      -2.75664643E-04  0.349331677       2.01066583E-03
  0.909090936      0.300000012      0.923295081      0.896032870      0.407943428      -2.09029895E-04  0.349980831       1.95079669E-03
  0.898989916      0.300000012      0.922133386      0.894405246      0.408251524      -1.55518152E-04  0.350343049       1.89527497E-03
  0.888888896      0.300000012      0.921272814      0.893190980      0.408314258      -1.14450559E-04  0.350471348       1.84381381E-03
  0.878787875      0.300000012      0.920678079      0.892340779      0.408168614      -8.45872491E-05  0.350400031       1.79562345E-03
  0.868686855      0.300000012      0.920334399      0.891834021      0.407826424      -6.50256698E-05  0.350140363       1.75023824E-03
  0.858585835      0.300000012      0.920245171      0.891674876      0.407278478      -5.53155332E-05  0.349684149       1.70751661E-03
  0.848484874      0.300000012      0.920425653      0.891882837      0.406502575      -5.53332720E-05  0.349011511       1.66616961E-03
  0.838383853      0.300000012      0.920894206      0.892483175      0.405472577      -6.51062364E-05  0.348098636       1.62658468E-03
  0.828282833      0.300000012      0.921667397      0.893497586      0.404165387      -8.43765811E-05  0.346924931       1.58757716E-03
  0.818181813      0.300000012      0.922755718      0.894940495      0.402564734      -1.12453956E-04  0.345476121       1.54902786E-03
  0.808080792      0.300000012      0.924161255      0.896815538      0.400663197      -1.48273306E-04  0.343746096       1.51109695E-03
  0.797979772      0.300000012      0.925878942      0.899115682      0.398462325      -1.90603983E-04  0.341737479       1.47289410E-03
  0.787878811      0.300000012      0.927895069      0.901823461      0.395972341      -2.38168781E-04  0.339460760       1.43479183E-03
  0.777777791      0.300000012      0.930189908      0.904913008      0.393210679      -2.89599877E-04  0.336933225       1.39661506E-03
  0.767676771      0.300000012      0.932737648      0.908349812      0.390201718      -3.43931548E-04  0.334178478       1.35808811E-03
  0.757575750      0.300000012      0.935507834      0.912094057      0.386975378      -4.00579185E-04  0.331225276       1.31991133E-03
  0.747474730      0.300000012      0.938466311      0.916099846      0.383566558      -4.59087081E-04  0.328106582       1.28175691E-03
  0.737373710      0.300000012      0.941576421      0.920318186      0.380013436      -5.19172812E-04  0.324858397       1.24384463E-03
  0.727272749      0.300000012      0.944800138      0.924697936      0.376356930      -5.80864202E-04  0.321518838       1.20649114E-03
  0.717171729      0.300000012      0.948098660      0.929187059      0.372639388      -6.44269749E-04  0.318127036       1.17018446E-03
  0.707070708      0.300000012      0.951433837      0.933733702      0.368903011      -7.09458778E-04  0.314721763       1.13521144E-03
  0.696969688      0.300000012      0.954769075      0.938287497      0.365189046      -7.76138506E-04  0.311340690       1.10116787E-03
  0.686868668      0.300000012      0.958069503      0.942800939      0.361536026      -8.43943213E-04  0.308018833       1.06883608E-03
  0.676767647      0.300000012      0.961303949      0.947230399      0.357978582      -9.12174059E-04  0.304787397       1.03752315E-03
  0.666666687      0.300000012      0.964444637      0.951537430      0.354545712      -9.79716191E-04  0.301672399       1.00775436E-03
  0.656565666      0.300000012      0.967469275      0.955690503      0.351259857      -1.04528118E-03  0.298693925       9.79069620E-04
  0.646464646      0.300000012      0.970361531      0.959666014      0.348135471      -1.10724033E-03  0.295864701       9.51214693E-04
  0.636363626      0.300000012      0.973112285      0.963450968      0.345177978      -1.16402761E-03  0.293189377       9.24411230E-04
  0.626262605      0.300000012      0.975720465      0.967042863      0.342383027      -1.21423742E-03  0.290663689       8.98316503E-04
  0.616161644      0.300000012      0.978194535      0.970452845      0.339736342      -1.25632400E-03  0.288274586       8.72964039E-04
  0.606060624      0.300000012      0.980553210      0.973705888      0.337212712      -1.28832192E-03  0.285999209       8.47756863E-04
  0.595959604      0.300000012      0.982824504      0.976841033      0.334776640      -1.30896969E-03  0.283805311       8.23263079E-04
  0.585858583      0.300000012      0.985044956      0.979908586      0.332385153      -1.31799898E-03  0.281654239       7.99230766E-04
  0.575757563      0.300000012      0.987257719      0.982969046      0.329991281      -1.31548406E-03  0.279503495       7.76147004E-04
  0.565656543      0.300000012      0.989509523      0.986086965      0.327547401      -1.30208768E-03  0.277310252       7.53496774E-04
  0.555555582      0.300000012      0.991846502      0.989327848      0.325009376      -1.27850322E-03  0.275034577       7.32209999E-04
  0.545454562      0.300000012      0.994311273      0.992751181      0.322338253      -1.24549947E-03  0.272641569       7.11716479E-04
  0.535353541      0.300000012      0.996940136      0.996408224      0.319500864      -1.20438926E-03  0.270101488       6.92167669E-04
  0.525252521      0.300000012      0.999759495       1.00033665      0.316471040      -1.15811639E-03  0.267391473       6.73393486E-04
  0.515151501      0.300000012       1.00278389       1.00455725      0.313232243      -1.11169647E-03  0.264497459       6.54911506E-04
  0.505050480      0.300000012       1.00601232       1.00906968      0.309785396      -1.07072771E-03  0.261421055       6.36798562E-04
  0.494949490      0.300000012       1.00943184       1.01385581      0.306147009      -1.03593897E-03  0.258177817       6.17968384E-04
  0.484848499      0.300000012       1.01301944       1.01888430      0.302341521      -1.00475911E-03  0.254790157       5.98670915E-04
  0.474747479      0.300000012       1.01674271       1.02410984      0.298399568      -9.77124670E-04  0.251286268       5.78002073E-04
  0.464646459      0.300000012       1.02055991       1.02947414      0.294364810      -9.55337309E-04  0.247705534       5.56236133E-04
  0.454545468      0.300000012       1.02442360       1.03491044      0.290294379      -9.39945458E-04  0.244098604       5.32788225E-04
  0.444444448      0.300000012       1.02828395       1.04034853      0.286252677      -9.29937582E-04  0.240522072       5.07852063E-04
  0.434343427      0.300000012       1.03208804       1.04571414      0.282305062      -9.23995336E-04  0.237033054       4.82438132E-04
  0.424242437      0.300000012       1.03578091       1.05092931      0.278515190      -9.21159110E-04  0.233686939       4.56891954E-04
  0.414141417      0.300000012       1.03930700       1.05591393      0.274944425      -9.20741702E-04  0.230537191       4.30826098E-04
  0.404040396      0.300000012       1.04261005       1.06058824      0.271651387      -9.22040024E-04  0.227634430       4.05654311E-04
  0.393939406      0.300000012       1.04563618       1.06487501      0.268689722      -9.24016233E-04  0.225024909       3.81695107E-04
  0.383838385      0.300000012       1.04833615       1.06870210      0.266107380      -9.25327011E-04  0.222749889       3.58937308E-04
  0.373737365      0.300000012       1.05066550       1.07200551      0.263944954      -9.24387074E-04  0.220844075       3.37995589E-04
  0.363636374      0.300000012       1.05258667       1.07473028      0.262233943      -9.19308281E-04  0.219334394       3.18866223E-04
  0.353535354      0.300000012       1.05407143       1.07683420      0.260994911      -9.07932874E-04  0.218238443       3.01172957E-04
  0.343434334      0.300000012       1.05509996       1.07828808      0.260237873      -8.88310198E-04  0.217564687       2.84969807E-04
  0.333333343      0.300000012       1.05566311       1.07907808      0.259961218      -8.58293904E-04  0.217311725       2.70262361E-04
  0.323232323      0.300000012       1.05576181       1.07920492      0.260152817      -8.16071639E-04  0.217469156       2.56881118E-04
  0.313131303      0.300000012       1.05540597       1.07868278      0.260790855      -7.59930117E-04  0.218018383       2.44883820E-04
  0.303030312      0.300000012       1.05461311       1.07753694      0.261846036      -6.88447792E-04  0.218934417       2.34285370E-04
  0.292929292      0.300000012       1.05340517       1.07579875      0.263285071      -6.00799976E-04  0.220188960       2.24240124E-04
  0.282828271      0.300000012       1.05180347       1.07349896      0.265075237      -4.96696273E-04  0.221754476       2.14522704E-04
  0.272727281      0.300000012       1.04982531       1.07066357      0.267188042      -3.76358803E-04  0.223607033       2.05373392E-04
  0.262626261      0.300000012       1.04748058       1.06730807      0.269602567      -2.40613925E-04  0.225729495       1.96725130E-04
  0.252525240      0.300000012       1.04477072       1.06343496      0.272308558      -9.09014561E-05  0.228114203       1.87803060E-04
  0.242424250      0.300000012       1.04168665       1.05903351      0.275306582       7.05298371E-05  0.230763048       1.79111958E-04
  0.232323229      0.300000012       1.03821194       1.05408227      0.278607011       2.40813039E-04  0.233686686       1.70569867E-04
  0.222222224      0.300000012       1.03432679       1.04855478      0.282226086       4.16414434E-04  0.236901000       1.61740929E-04
  0.212121218      0.300000012       1.03001499       1.04243124      0.286180317       5.92911150E-04  0.240422279       1.53031200E-04
  0.202020198      0.300000012       1.02527225       1.03570795      0.290478706       7.65506527E-04  0.244260222       1.43713318E-04
  0.191919193      0.300000012       1.02011454       1.02841151      0.295113981       9.28974187E-04  0.248409912       1.34564936E-04
  0.181818187      0.300000012       1.01458549       1.02060628      0.300055593       1.07789843E-03  0.252845794       1.24644488E-04
  0.171717167      0.300000012       1.00876009       1.01240146      0.305245221       1.20683690E-03  0.257516950       1.14510302E-04
  0.161616161      0.300000012       1.00274408       1.00394833      0.310596108       1.31108239E-03  0.262346476       1.04048871E-04
  0.151515156      0.300000012      0.996667922      0.995431364      0.315997988       1.38668774E-03  0.267235428       9.36242286E-05
  0.141414136      0.300000012      0.990676403      0.987052739      0.321326554       1.43109844E-03  0.272071242       8.24728049E-05
  0.131313130      0.300000012      0.984915018      0.979014516      0.326454908       1.44347944E-03  0.276737660       7.10915774E-05
  0.121212125      0.300000012      0.979516566      0.971498787      0.331265956       1.42489269E-03  0.281126350       5.93187287E-05
  0.111111112      0.300000012      0.974590778      0.964655221      0.335662127       1.37819548E-03  0.285145849       4.81214374E-05
  0.101010099      0.300000012      0.970217288      0.958590269      0.339571208       1.30804116E-03  0.288727462       3.77725810E-05
   9.09090936E-02  0.300000012      0.966443956      0.953366399      0.342947602       1.21992407E-03  0.291826636       2.87741423E-05
   8.08080807E-02  0.300000012      0.963287890      0.949004292      0.345770776       1.11986604E-03  0.294422179       2.21822411E-05
   7.07070678E-02  0.300000012      0.960741937      0.945490003      0.348040283       1.01332576E-03  0.296511978       1.72555447E-05
   6.06060624E-02  0.300000012      0.958778620      0.942783117      0.349772811       9.04435758E-04  0.298110127       1.40722841E-05
   5.05050495E-02  0.300000012      0.957357347      0.940824747      0.350998133       7.95444590E-04  0.299243391       1.15502626E-05
   4.04040404E-02  0.300000012      0.956428528      0.939544797      0.351757586       6.86771062E-04  0.299949229       9.15490091E-06
   3.03030312E-02  0.300000012      0.955937564      0.938867152      0.352101892       5.77432802E-04  0.300273925       6.44661486E-06
   2.02020202E-02  0.300000012      0.955826819      0.938712537      0.352089465       4.65374818E-04  0.300270498       3.92831862E-06
   1.01010101E-02  0.300000012      0.956033528      0.938994646      0.351789981       3.44910659E-04  0.300002366       1.74902380E-06
   0.00000000      0.289655179      0.956394255      0.939489663      0.351210237       4.96015360E-04  0.299485683       6.05359674E-07
   0.00000000      0.279310346      0.956545651      0.939697862      0.350656241       7.84601085E-04  0.299004257       5.69969416E-07
   0.00000000      0.268965513      0.956802666      0.940051496      0.349719435       1.05726090E-03  0.298189998       7.46920705E-07
   0.00000000      0.258620679      0.957155287      0.940536618      0.348424822       1.31571328E-03  0.297065020       8.32602382E-07
   0.00000000      0.248275861      0.957594097      0.941140294      0.346795708       1.55898230E-03  0.295649827       7.86036253E-07
   0.00000000      0.237931028      0.958108842      0.941848695      0.344857037       1.78459182E-03  0.293966442       7.74860382E-07
   0.00000000      0.227586210      0.958688498      0.942646801      0.342637092       1.98923284E-03  0.292039722       1.13248825E-06
   0.00000000      0.217241377      0.959321201      0.943518221      0.340168566       2.16903631E-03  0.289898425       1.41188502E-06
   0.00000000      0.206896558      0.959994316      0.944445372      0.337488502       2.32030894E-03  0.287575006       1.65775418E-06
   0.00000000      0.196551725      0.960694611      0.945410192      0.334638387       2.43931427E-03  0.285105646       1.84029341E-06
   0.00000000      0.186206892      0.961408794      0.946394384      0.331663162       2.52305903E-03  0.282529473       1.93528831E-06
   0.00000000      0.175862074      0.962124348      0.947380781      0.328609854       2.56962865E-03  0.279887289       1.99675560E-06
   0.00000000      0.165517241      0.962829411      0.948352873      0.325526476       2.57812580E-03  0.277220666       2.05077231E-06
   0.00000000      0.155172408      0.963512957      0.949295759      0.322460294       2.54881964E-03  0.274570465       2.17370689E-06
   0.00000000      0.144827589      0.964166343      0.950197041      0.319455653       2.48334208E-03  0.271974891       2.14390457E-06
   0.00000000      0.134482756      0.964782178      0.951046705      0.316553712       2.38388358E-03  0.269469380       1.98371708E-06
   0.00000000      0.124137931      0.965354621      0.951836526      0.313790560       2.25375150E-03  0.267084897       1.72853470E-06
   0.00000000      0.113793105      0.965879440      0.952560842      0.311197519       2.09653703E-03  0.264848232       1.41933560E-06
   0.00000000      0.103448279      0.966353893      0.953216016      0.308800191       1.91619573E-03  0.262781233       1.52923167E-06
   0.00000000       9.31034461E-02  0.966776788      0.953799784      0.306618720       1.71651074E-03  0.260901123       1.18277967E-06
   0.00000000       8.27586204E-02  0.967147410      0.954311490      0.304668486       1.50121667E-03  0.259220928       9.57399607E-07
   0.00000000       7.24137947E-02  0.967465818      0.954751134      0.302960426       1.27386185E-03  0.257749885       7.33882189E-07
   0.00000000       6.20689653E-02  0.967732728      0.955119908      0.301501870       1.03796960E-03  0.256494075       6.57513738E-07
   0.00000000       5.17241396E-02  0.967949450      0.955419004      0.300297201       7.96994951E-04  0.255457222       2.88709998E-07
   0.00000000       4.13793102E-02  0.968116820      0.955650449      0.299347818       5.55389037E-04  0.254640311       4.52622771E-07
   0.00000000       3.10344826E-02  0.968236923      0.955816090      0.298653215       3.19541228E-04  0.254042923       1.08033419E-07
   0.00000000       2.06896551E-02  0.968311369      0.955919087      0.298210442       1.00071578E-04  0.253662199       1.99303031E-07
   0.00000000       1.03448275E-02  0.968343258      0.955963194      0.298014671      -8.17821783E-05  0.253494024       2.55182385E-07
   1.01942774E-02  -1.06002917E-05  0.968113840      0.955646455      0.298067182      -2.78342661E-04  0.253550768       6.03497028E-07
   2.03885511E-02  -4.05888240E-05  0.967391431      0.954650342      0.298299730      -6.67347456E-04  0.253786713       2.79769301E-06
   3.05827484E-02  -8.74972393E-05  0.966621101      0.953590691      0.298483044      -1.03146187E-03  0.253983438       7.42822886E-06
   4.07768898E-02  -1.49138228E-04  0.965802431      0.952466607      0.298651993      -1.34918140E-03  0.254170477       1.41710043E-05
   5.09709269E-02  -2.23550553E-04  0.964929581      0.951267958      0.298830032      -1.61521451E-03  0.254368275       2.07591802E-05
   6.11648858E-02  -3.08956922E-04  0.963988245      0.949973881      0.299037635      -1.82837376E-03  0.254595101       2.59019434E-05
   7.13587478E-02  -4.03728453E-04  0.962958097      0.948556721      0.299296647      -1.99084519E-03  0.254870445       2.98544765E-05
   8.15525427E-02  -5.06357115E-04  0.961819708      0.946990252      0.299630553      -2.10825307E-03  0.255215436       3.31010669E-05
   9.17462707E-02  -6.15430705E-04  0.960560560      0.945257604      0.300061077      -2.18754192E-03  0.255649239       3.57925892E-05
  0.101939946      -7.29613879E-04  0.959179223      0.943357527      0.300602555      -2.23604776E-03  0.256184220       3.83220613E-05
  0.112133577      -8.47629446E-04  0.957688510      0.941308081      0.301256448      -2.25969520E-03  0.256821156       4.09577042E-05
  0.122327171      -9.68243345E-04  0.956115067      0.939146459      0.302008897      -2.26260396E-03  0.257546902       4.39621508E-05
  0.132520750      -1.09024998E-03  0.954497159      0.936924875      0.302830309      -2.24666880E-03  0.258334368       4.67132777E-05
  0.142714337      -1.21245917E-03  0.952879131      0.934704721      0.303679556      -2.21159915E-03  0.259146154       4.95277345E-05
  0.152907923      -1.33368257E-03  0.951307297      0.932550192      0.304509372      -2.15547858E-03  0.259939224       5.30462712E-05
  0.163101539      -1.45272142E-03  0.949824750      0.930519640      0.305272788      -2.07500206E-03  0.260671228       5.67641109E-05
  0.173295200      -1.56835280E-03  0.948467016      0.928660989      0.305928946      -1.96591695E-03  0.261305183       6.00665808E-05
  0.183488905      -1.67931605E-03  0.947258174      0.927007794      0.306447238      -1.82346418E-03  0.261813402       6.37713820E-05
  0.193682685      -1.78429752E-03  0.946210563      0.925576508      0.306810290      -1.64276140E-03  0.262180209       6.77704811E-05
  0.203876525      -1.88191328E-03  0.945325375      0.924368441      0.307012826      -1.41883129E-03  0.262400866       7.20284879E-05
  0.214070454      -1.97069068E-03  0.944593668      0.923371553      0.307061017      -1.14728429E-03  0.262481034       7.70539045E-05
  0.224264458      -2.04904471E-03  0.944000542      0.922564805      0.306968391      -8.23587296E-04  0.262433290       8.22879374E-05
  0.234458551      -2.11525219E-03  0.943527639      0.921923220      0.306751788      -4.43475379E-04  0.262272954       8.81515443E-05
  0.244652733      -2.16741930E-03  0.943156660      0.921421766      0.306427538      -2.28880231E-06  0.262015194       9.46447253E-05
  0.254846990      -2.20344099E-03  0.942872226      0.921039522      0.306007594       5.05266478E-04  0.261671305       1.01994723E-04
  0.265041292      -2.22095218E-03  0.942663848      0.920762181      0.305497289       1.08577008E-03  0.261246681       1.10205263E-04
  0.275235593      -2.21726228E-03  0.942526639      0.920583308      0.304893732       1.74757058E-03  0.260739535       1.19745731E-04
  0.285429865      -2.18927371E-03  0.942462146      0.920504630      0.304185510       2.50137364E-03  0.260140628       1.30094588E-04
  0.295624018      -2.13337177E-03  0.942477286      0.920535684      0.303352773       3.36162420E-03  0.259433329       1.41296536E-04
  0.305817962      -2.04527588E-03  0.942583740      0.920692503      0.302367121       4.34684381E-03  0.258593768       1.53549016E-04
  0.316011488      -1.91983546E-03  0.942797184      0.920997202      0.301192135       5.48227550E-03  0.257591516       1.67440623E-04
  0.326204360      -1.75073801E-03  0.943136930      0.921476424      0.299782336       6.80150744E-03  0.256388783       1.83239579E-04
  0.336396307      -1.53008103E-03  0.943625689      0.922161400      0.298082322       8.35119653E-03  0.254940599       2.00957060E-04
  0.346586645      -1.24772848E-03  0.944288909      0.923087537      0.296024054       1.01974290E-02  0.253192902       2.21107155E-04
  0.356774658      -8.90274358E-04  0.945154488      0.924293637      0.293523401       1.24370102E-02  0.251081437       2.44177878E-04
  0.366958946      -4.39326104E-04  0.946253955      0.925823331      0.290475249       1.52374376E-02  0.248531625       2.70146877E-04
  0.377137065       1.33766516E-04  0.947636783      0.927745640      0.286786944       1.93620399E-02  0.245521426       2.99917534E-04
  0.387299746       9.32033930E-04  0.949220955      0.929947495      0.283026189       2.56384350E-02  0.242656335       3.31999734E-04
  0.397434235       2.03104783E-03  0.950816691      0.932167828      0.279821873       3.36633734E-02  0.240568757       3.65197659E-04
  0.407523632       3.48527054E-03  0.952365935      0.934328854      0.277417630       4.33068424E-02  0.239579901       4.01459634E-04
  0.417543113       5.36030158E-03  0.953805745      0.936349332      0.276174843       5.49580194E-02  0.240195170       4.46707010E-04
  0.427456856       7.73026003E-03  0.954961002      0.937999964      0.276926845       6.91463575E-02  0.243402734       5.13289124E-04
  0.437217921       1.06651187E-02  0.955491245      0.938835919      0.281256109       8.63194466E-02  0.250843674       6.27027825E-04
  0.446780443       1.41935814E-02  0.954778671      0.938044488      0.291928530      0.106072888      0.264837891       8.28139484E-04
  0.456144422       1.82216074E-02  0.951899052      0.934387624      0.312910706      0.125064835      0.287454933       1.15087442E-03
  0.465438336       2.24102195E-02  0.946179211      0.926930010      0.346666425      0.134140149      0.317400783       1.57538429E-03
  0.474928796       2.61229333E-02  0.938941956      0.917424977      0.386927336      0.120849796      0.346586704       2.01778859E-03
  0.484786808       2.86871437E-02  0.933903873      0.910910189      0.418231189       8.28171447E-02  0.364852697       2.42354348E-03
  0.494905144       2.98680626E-02  0.933516979      0.910769880      0.430802673       3.45579199E-02  0.369797498       2.84956768E-03
  0.505094886       2.98680626E-02  0.936376154      0.915151179      0.428073227      -1.18261566E-02  0.366098940       3.36717069E-03
  0.515213192       2.86871418E-02  0.939915121      0.920735300      0.413816094      -5.86447567E-02  0.356893122       4.16932255E-03
  0.525071204       2.61229314E-02  0.944137335      0.927586138      0.387206644     -0.103215151      0.341684550       5.30747324E-03
  0.534561634       2.24102195E-02  0.950698555      0.937688112      0.352309793     -0.130646825      0.319765300       6.44361228E-03
  0.543855608       1.82216056E-02  0.959445298      0.950578272      0.318260878     -0.132679820      0.292773664       7.27520138E-03
  0.553219557       1.41935805E-02  0.967830002      0.962739885      0.291723996     -0.116935655      0.266323000       7.80630531E-03
  0.562782109       1.06651178E-02  0.973897755      0.971503854      0.274274200      -9.60864723E-02  0.245919630       8.11852980E-03
  0.572543144       7.73025956E-03  0.977737904      0.977013350      0.264084011      -7.70447329E-02  0.232582361       8.26410949E-03
  0.582456887       5.36030112E-03  0.980215728      0.980528474      0.258402020      -6.13302775E-02  0.224420696       8.31197109E-03
  0.592476368       3.48527008E-03  0.981968403      0.982997954      0.255219191      -4.86340374E-02  0.219465911       8.32635071E-03