 title = "grid"
                                   variables = "x","y","rho","P","u","v","M","S"
 zone n=        3000  e =        5742  et=quadrilateral, f=fepoint
   0.00000000       0.00000000      0.966795325      0.953824937      0.308349818      -5.35549421E-04  0.262369454       7.00354576E-07
   1.00000000       0.00000000      0.930836797      0.914374471      0.457852632      -5.99274179E-03  0.390457392       1.08247232E-02
   1.00000000      0.300000012      0.934278488      0.935852289     -0.353736430       1.70962012E-03  0.298713833       2.88754292E-02
   0.00000000      0.300000012      0.948402107      0.928516626      0.383055717       3.01703927E-04  0.327189565       3.74391675E-07
   1.00000000       1.03448275E-02  0.934714794      0.917013466      0.459241360      -1.03480853E-02  0.391957462       7.88619556E-03
   1.00000000       2.06896551E-02  0.938072503      0.919559896      0.461059690      -1.66692473E-02  0.393826514       5.63913956E-03
   1.00000000       3.10344826E-02  0.941005230      0.922843218      0.462171763      -2.41663605E-02  0.394970208       4.83330525E-03
   1.00000000       4.13793102E-02  0.943986237      0.926446021      0.461925775      -3.30399498E-02  0.395083666       4.30163741E-03
   1.00000000       5.17241396E-02  0.946877658      0.930012167      0.459801912      -4.33533341E-02  0.393850416       3.86188924E-03
   1.00000000       6.20689653E-02  0.949507475      0.933262765      0.455427468      -5.50620817E-02  0.391069144       3.46814841E-03
   1.00000000       7.24137947E-02  0.951740503      0.936012030      0.448711783      -6.80209398E-02  0.386772543       3.12109292E-03
   1.00000000       8.27586204E-02  0.953495681      0.938176215      0.439731389      -8.19760263E-02  0.381117642       2.85108387E-03
   1.00000000       9.31034461E-02  0.954753637      0.939773202      0.428694844      -9.65875313E-02  0.374343872       2.70598568E-03
   1.00000000      0.103448279      0.955574751      0.940894246      0.415735006     -0.111432627      0.366589755       2.69462913E-03
   1.00000000      0.113793105      0.956107616      0.941664457      0.400838047     -0.126080245      0.357846290       2.73245946E-03
   1.00000000      0.124137931      0.956499875      0.942199826      0.384110302     -0.140257522      0.348210454       2.72656977E-03
   1.00000000      0.134482756      0.956790924      0.942580283      0.365986943     -0.153880700      0.338063955       2.70434283E-03
   1.00000000      0.144827589      0.956968307      0.942862749      0.346709818     -0.166739896      0.327571332       2.74448842E-03
   1.00000000      0.155172408      0.957070768      0.943106413      0.326023370     -0.178393990      0.316409200       2.85293907E-03
   1.00000000      0.165517241      0.957169712      0.943375707      0.303635627     -0.188402295      0.304205179       2.99369171E-03
   1.00000000      0.175862074      0.957329571      0.943752229      0.279126495     -0.196021557      0.290331960       3.15898843E-03
   1.00000000      0.186206892      0.957587719      0.944363713      0.251006484     -0.199256107      0.272744596       3.42926756E-03
   1.00000000      0.196551725      0.957847595      0.945350587      0.216138557     -0.194486305      0.247355118       4.09379415E-03
   1.00000000      0.206896558      0.957875431      0.946767449      0.170688286     -0.178209394      0.209774569       5.55074215E-03
   1.00000000      0.217241377      0.957511246      0.948424637      0.111666605     -0.149661541      0.158569634       7.83197023E-03
   1.00000000      0.227586210      0.956598282      0.949622929       3.85608524E-02 -0.111983679      0.100464351       1.04301190E-02
   1.00000000      0.237931028      0.955044031      0.949720919      -4.42154147E-02  -7.21825212E-02   7.17410073E-02   1.28098503E-02
   1.00000000      0.248275861      0.952617466      0.948296607     -0.128133401      -3.88056114E-02  0.113407336       1.48706213E-02
   1.00000000      0.258620679      0.949165344      0.945395291     -0.203114152      -1.63848046E-02  0.172563449       1.68889910E-02
   1.00000000      0.268965513      0.945140064      0.942028582     -0.262077093      -4.37746197E-03  0.221891984       1.92713439E-02
   1.00000000      0.279310346      0.941040456      0.939298391     -0.305357903       4.69847379E-04  0.258314043       2.24547461E-02
   1.00000000      0.289655179      0.936711729      0.937657654     -0.341464520       1.61506026E-03  0.288447827       2.71611847E-02
  0.989898980      0.300000012      0.938938439      0.942413568     -0.350750029       1.80190988E-03  0.295894712       2.88963877E-02
  0.979797959      0.300000012      0.950923264      0.959335744     -0.342177659       2.89034192E-03  0.287932426       2.89364997E-02
  0.969696999      0.300000012      0.965136290      0.979581952     -0.329267591       4.14642366E-03  0.276244313       2.90508997E-02
  0.959595978      0.300000012      0.981171370       1.00281787     -0.310490310       4.79757460E-03  0.259595573       2.94253770E-02
  0.949494958      0.300000012      0.998409033       1.02849805     -0.283437133       4.42103902E-03  0.236046791       3.03286333E-02
  0.939393938      0.300000012       1.01667666       1.05576360     -0.246302113       3.30271223E-03  0.204291940       3.11095659E-02
  0.929292917      0.300000012       1.03720391       1.08336532     -0.199796066       2.50715832E-03  0.165234864       2.89322324E-02
  0.919191897      0.300000012       1.06009853       1.10990167     -0.147982225       3.32359178E-03  0.122260414       2.25649104E-02
  0.909090936      0.300000012       1.08149350       1.13427341      -9.69563127E-02   6.35409541E-03   8.01854879E-02   1.63122118E-02
  0.898989916      0.300000012       1.09857142       1.15582514      -5.21879122E-02   1.09395310E-02   4.39351089E-02   1.31996088E-02
  0.888888896      0.300000012       1.11210644       1.17440450      -1.63230132E-02   1.57261435E-02   1.86413452E-02   1.20029896E-02
  0.878787875      0.300000012       1.12331498       1.19029474       1.10547086E-02   1.98125541E-02   1.86275225E-02   1.14032775E-02
  0.868686855      0.300000012       1.13267457       1.20370615       3.25602069E-02   2.26160809E-02   3.25017609E-02   1.09908432E-02
  0.858585835      0.300000012       1.14019966       1.21448839       5.07648140E-02   2.44585685E-02   4.61446457E-02   1.06382445E-02
  0.848484874      0.300000012       1.14578569       1.22243690       6.69565648E-02   2.58627739E-02   5.87306842E-02   1.03194490E-02
  0.838383853      0.300000012       1.14933181       1.22738171       8.18550587E-02   2.69043632E-02   7.04677925E-02   1.00301132E-02
  0.828282833      0.300000012       1.15070665       1.22911358       9.60871130E-02   2.76391953E-02   8.17616656E-02   9.76659358E-03
  0.818181813      0.300000012       1.14969003       1.22729707      0.110283338       2.81008799E-02   9.30938944E-02   9.52498615E-03
  0.808080792      0.300000012       1.14587581       1.22132540      0.125228092       2.83028111E-02  0.105101474       9.29965079E-03
  0.797979772      0.300000012       1.13855660       1.21015108      0.142032161       2.82480195E-02  0.118714556       9.07941163E-03
  0.787878811      0.300000012       1.12672174       1.19229984      0.162183255       2.79601887E-02  0.135212675       8.84693116E-03
  0.777777791      0.300000012       1.10946095       1.16650188      0.187139660       2.75495686E-02  0.155908883       8.58543813E-03
  0.767676771      0.300000012       1.08697987       1.13320315      0.217199683       2.72594765E-02  0.181194797       8.28388706E-03
  0.757575750      0.300000012       1.06168127       1.09607816      0.250197381       2.73530185E-02  0.209351003       7.94317946E-03
  0.747474730      0.300000012       1.03782761       1.06138754      0.281684488       2.78501529E-02  0.236557588       7.59541243E-03
  0.737373710      0.300000012       1.01926231       1.03458345      0.307406694       2.84521971E-02  0.258977354       7.28805829E-03
  0.727272749      0.300000012       1.00730050       1.01736724      0.325834334       2.88107973E-02  0.275083572       7.03459419E-03
  0.717171729      0.300000012       1.00086963       1.00806546      0.338153005       2.87780389E-02  0.285798967       6.81622885E-03
  0.707070708      0.300000012      0.998049557       1.00388539      0.346517742       2.83898637E-02  0.292986870       6.61111809E-03
  0.696969688      0.300000012      0.997215092       1.00250769      0.352720410       2.77437940E-02  0.298233509       6.40877662E-03
  0.686868668      0.300000012      0.997343063       1.00248384      0.357846111       2.69267727E-02  0.302511513       6.20544609E-03
  0.676767647      0.300000012      0.997893095       1.00305152      0.362434596       2.60002408E-02  0.306309611       5.99959167E-03
  0.666666687      0.300000012      0.998618066       1.00386226      0.366717398       2.50067730E-02  0.309840024       5.79080451E-03
  0.656565666      0.300000012      0.999424696       1.00478482      0.370782226       2.39772554E-02  0.313183963       5.57908881E-03
  0.646464646      0.300000012       1.00029457       1.00579381      0.374658972       2.29352266E-02  0.316368908       5.36468904E-03
  0.636363626      0.300000012       1.00124323       1.00691223      0.378355563       2.18990277E-02  0.319401056       5.14901429E-03
  0.626262605      0.300000012       1.00230122       1.00818491      0.381868631       2.08835565E-02  0.322275639       4.93364641E-03
  0.616161644      0.300000012       1.00350344       1.00966489      0.385182261       1.98991448E-02  0.324976414       4.72231442E-03
  0.606060624      0.300000012       1.00488245       1.01140153      0.388271749       1.89492758E-02  0.327479571       4.51817317E-03
  0.595959604      0.300000012       1.00646675       1.01344013      0.391104639       1.80400778E-02  0.329754770       4.32629324E-03
  0.585858583      0.300000012       1.00827932       1.01581800      0.393635929       1.71790663E-02  0.331761807       4.15091217E-03
  0.575757563      0.300000012       1.01033723       1.01856124      0.395809263       1.63721200E-02  0.333451539       3.99322389E-03
  0.565656543      0.300000012       1.01264799       1.02168190      0.397563189       1.56232249E-02  0.334771633       3.85398045E-03
  0.555555582      0.300000012       1.01520789       1.02517343      0.398841560       1.49342185E-02  0.335675329       3.73107288E-03
  0.545454562      0.300000012       1.01799846       1.02900708      0.399608076       1.43065928E-02  0.336134255       3.62052489E-03
  0.535353541      0.300000012       1.02098083       1.03312516      0.399861366       1.37469647E-02  0.336150885       3.51914950E-03
  0.525252521      0.300000012       1.02409542       1.03743935      0.399641633       1.32740438E-02  0.335764676       3.42188030E-03
  0.515151501      0.300000012       1.02726340       1.04183435      0.399018943       1.29220253E-02  0.335041553       3.32523137E-03
  0.505050480      0.300000012       1.03039110       1.04617512      0.398066431       1.27249025E-02  0.334050506       3.22700851E-03
  0.494949490      0.300000012       1.03336513       1.05030000      0.396858037       1.26886154E-02  0.332861245       3.12698074E-03
  0.484848499      0.300000012       1.03605080       1.05401695      0.395500213       1.27938818E-02  0.331571013       3.02591920E-03
  0.474747479      0.300000012       1.03830707       1.05712318      0.394125909       1.30370567E-02  0.330299973       2.92310119E-03
  0.464646459      0.300000012       1.04000390       1.05943131      0.392840207       1.34261567E-02  0.329144418       2.81796418E-03
  0.454545468      0.300000012       1.04102659       1.06077421      0.391701639       1.39332609E-02  0.328159839       2.70882808E-03
  0.444444448      0.300000012       1.04127586       1.06101036      0.390756339       1.44912256E-02  0.327388585       2.59620138E-03
  0.434343427      0.300000012       1.04067767       1.06003416      0.390062451       1.50284432E-02  0.326881588       2.48015858E-03
  0.424242437      0.300000012       1.03918755       1.05778360      0.389685839       1.54908206E-02  0.326694638       2.36081518E-03
  0.414141417      0.300000012       1.03679228       1.05424273      0.389686853       1.58407781E-02  0.326878130       2.23843381E-03
  0.404040396      0.300000012       1.03350842       1.04943979      0.390112132       1.60503555E-02  0.327469587       2.11353041E-03
  0.393939406      0.300000012       1.02938509       1.04344988      0.390989304       1.60987638E-02  0.328489721       1.98614225E-03
  0.383838385      0.300000012       1.02450669       1.03639972      0.392322004       1.59722846E-02  0.329937756       1.85727421E-03
  0.373737365      0.300000012       1.01899612       1.02847052      0.394086123       1.56656355E-02  0.331787735       1.72757357E-03
  0.363636374      0.300000012       1.01301181       1.01989317      0.396228701       1.51837301E-02  0.333987713       1.59892067E-03
  0.353535354      0.300000012       1.00674188       1.01093876      0.398669243       1.45447198E-02  0.336460590       1.47237023E-03
  0.343434334      0.300000012       1.00039160       1.00189936      0.401300430       1.37785766E-02  0.339105159       1.34941586E-03
  0.333333343      0.300000012      0.994163930      0.993060529      0.403998852       1.29191661E-02  0.341805637       1.23074395E-03
  0.323232323      0.300000012      0.988239944      0.984675467      0.406639755       1.20048411E-02  0.344444752       1.11845601E-03
  0.313131303      0.300000012      0.982764542      0.976942778      0.409109056       1.10743176E-02  0.346915990       1.01280306E-03
  0.303030312      0.300000012      0.977834702      0.969993234      0.411315084       1.01620723E-02  0.349133462       9.14323144E-04
  0.292929292      0.300000012      0.973496497      0.963885427      0.413194150       9.29491129E-03  0.351038247       8.22626054E-04
  0.282828271      0.300000012      0.969748676      0.958612978      0.414713413       8.49037990E-03  0.352600574       7.37821683E-04
  0.272727281      0.300000012      0.966553211      0.954118371      0.415868044       7.75699038E-03  0.353817105       6.58975914E-04
  0.262626261      0.300000012      0.963846862      0.950311482      0.416674435       7.09579047E-03  0.354704589       5.86505979E-04
  0.252525240      0.300000012      0.961555302      0.947086275      0.417163670       6.50259014E-03  0.355293721       5.19355759E-04
  0.242424250      0.300000012      0.959603131      0.944336712      0.417373419       5.97057305E-03  0.355621129       4.57217917E-04
  0.232323229      0.300000012      0.957921565      0.941966772      0.417342216       5.49212703E-03  0.355723947       3.99867073E-04
  0.222222224      0.300000012      0.956453502      0.939896524      0.417104095       5.06011490E-03  0.355634868       3.46859917E-04
  0.212121218      0.300000012      0.955154181      0.938064039      0.416687012       4.66855522E-03  0.355380625       2.98457220E-04
  0.202020198      0.300000012      0.953991473      0.936424792      0.416111082       4.31289198E-03  0.354980379       2.54658982E-04
  0.191919193      0.300000012      0.952943742      0.934947908      0.415389121       3.98976076E-03  0.354446799       2.14690343E-04
  0.181818187      0.300000012      0.951997101      0.933614373      0.414526761       3.69679532E-03  0.353785336       1.78812072E-04
  0.171717167      0.300000012      0.951143444      0.932412922      0.413523823       3.43229738E-03  0.352996439       1.47001818E-04
  0.161616161      0.300000012      0.950378180      0.931337118      0.412375122       3.19489907E-03  0.352075875       1.19412318E-04
  0.151515156      0.300000012      0.949699163      0.930383921      0.411071062       2.98353890E-03  0.351015478       9.60268080E-05
  0.141414136      0.300000012      0.949105263      0.929551363      0.409599900       2.79700081E-03  0.349805355       7.65658915E-05
  0.131313130      0.300000012      0.948596060      0.928838789      0.407947898       2.63379654E-03  0.348433763       6.10426068E-05
  0.121212125      0.300000012      0.948170841      0.928245127      0.406103045       2.49105692E-03  0.346890450       4.94178385E-05
  0.111111112      0.300000012      0.947828591      0.927768350      0.404060006       2.36409786E-03  0.345171094       4.10471112E-05
  0.101010099      0.300000012      0.947568238      0.927406132      0.401825994       2.24537030E-03  0.343282014       3.51723284E-05
   9.09090936E-02  0.300000012      0.947387218      0.927154005      0.399430335       2.12409766E-03  0.341248661       3.07038426E-05
   8.08080807E-02  0.300000012      0.947282076      0.927006185      0.396929502       1.98774040E-03  0.339119792       2.66917050E-05
   7.07070678E-02  0.300000012      0.947248220      0.926955342      0.394407481       1.82529446E-03  0.336967707       2.18562782E-05
   6.06060624E-02  0.300000012      0.947280109      0.926994264      0.391965419       1.63129682E-03  0.334879190       1.67414546E-05
   5.05050495E-02  0.300000012      0.947371483      0.927115023      0.389703840       1.40832225E-03  0.332940668       1.19637698E-05
   4.04040404E-02  0.300000012      0.947516859      0.927310050      0.387703568       1.16617512E-03  0.331221670       7.46734440E-06
   3.03030312E-02  0.300000012      0.947709739      0.927571058      0.386014730       9.17776022E-04  0.329765439       3.94694507E-06
   2.02020202E-02  0.300000012      0.947942257      0.927887976      0.384656578       6.74292154E-04  0.328588992       2.08988786E-06
   1.01010101E-02  0.300000012      0.948203087      0.928244352      0.383629531       4.40988777E-04  0.327693492       9.08970833E-07
   0.00000000      0.289655179      0.948474407      0.928615630      0.382789522       6.47294743E-04  0.326957643       2.55182385E-07
   0.00000000      0.279310346      0.948668182      0.928881466      0.382127285       1.05148379E-03  0.326379359       5.66244125E-07
   0.00000000      0.268965513      0.949000120      0.929336786      0.380961716       1.41669158E-03  0.325362027       7.99074769E-07
   0.00000000      0.258620679      0.949453294      0.929958284      0.379345477       1.74536835E-03  0.323951930       9.25734639E-07
   0.00000000      0.248275861      0.950011015      0.930723488      0.377327919       2.04012915E-03  0.322192371       1.33924186E-06
   0.00000000      0.237931028      0.950658143      0.931611478      0.374954581       2.30290182E-03  0.320123553       1.59628689E-06
   0.00000000      0.227586210      0.951380312      0.932602704      0.372267574       2.53468496E-03  0.317782551       1.92411244E-06
   0.00000000      0.217241377      0.952164650      0.933679700      0.369306713       2.73592863E-03  0.315204293       2.41957605E-06
   0.00000000      0.206896558      0.952999413      0.934826314      0.366109580       2.90672388E-03  0.312422007       2.85357237E-06
   0.00000000      0.196551725      0.953874409      0.936028302      0.362712145       3.04719433E-03  0.309467107       3.01748514E-06
   0.00000000      0.186206892      0.954779387      0.937272012      0.359148920       3.15706432E-03  0.306369871       3.18512321E-06
   0.00000000      0.175862074      0.955705464      0.938545465      0.355453223       3.23648215E-03  0.303159237       3.74950469E-06
   0.00000000      0.165517241      0.956644714      0.939837039      0.351657093       3.28508369E-03  0.299863368       3.67686152E-06
   0.00000000      0.155172408      0.957588911      0.941135943      0.347791821       3.30240536E-03  0.296509266       3.74019146E-06
   0.00000000      0.144827589      0.958531082      0.942432642      0.343887955       3.28774308E-03  0.293123543       3.75509262E-06
   0.00000000      0.134482756      0.959464729      0.943717539      0.339976847       3.23959859E-03  0.289733410       3.20374966E-06
   0.00000000      0.124137931      0.960382402      0.944981396      0.336091369       3.15612019E-03  0.286366969       3.18884850E-06
   0.00000000      0.113793105      0.961277723      0.946214795      0.332267702       3.03531741E-03  0.283055633       2.99327075E-06
   0.00000000      0.103448279      0.962143838      0.947408319      0.328546077       2.87460769E-03  0.279833853       2.74367630E-06
   0.00000000       9.31034461E-02  0.962972462      0.948550761      0.324973047       2.67198845E-03  0.276741713       2.63378024E-06
   0.00000000       8.27586204E-02  0.963755071      0.949629843      0.321601182       2.42652488E-03  0.273824394       2.35438347E-06
   0.00000000       7.24137947E-02  0.964480817      0.950630963      0.318488717       2.13903282E-03  0.271131933       2.14576721E-06
   0.00000000       6.20689653E-02  0.965137661      0.951537192      0.315695643       1.81238714E-03  0.268715978       1.85519457E-06
   0.00000000       5.17241396E-02  0.965712070      0.952329874      0.313279569       1.45119824E-03  0.266626209       1.53481960E-06
   0.00000000       4.13793102E-02  0.966190040      0.952989697      0.311290503       1.06100237E-03  0.264905840       1.42119825E-06
   0.00000000       3.10344826E-02  0.966559112      0.953499258      0.309766918       6.46239554E-04  0.263588250       1.28708780E-06
   0.00000000       2.06896551E-02  0.966808975      0.953844309      0.308735460       2.08553785E-04  0.262696445       1.28895044E-06
   0.00000000       1.03448275E-02  0.966933072      0.954015851      0.308211237      -2.53184233E-04  0.262243658       1.41747296E-06
   1.01942774E-02  -1.06002917E-05  0.967505455      0.954807401      0.307614297      -5.66007162E-04  0.261705011       2.27428973E-06
   2.03885511E-02  -4.05888240E-05  0.969154775      0.957089841      0.305916876      -8.86665192E-04  0.260172546       5.34206629E-06
   3.05827484E-02  -8.74972393E-05  0.970795393      0.959362566      0.303816408      -1.11668883E-03  0.258298934       9.18656588E-06
   4.07768898E-02  -1.49138228E-04  0.972412348      0.961604834      0.301318467      -1.25990296E-03  0.256089896       1.37928873E-05
   5.09709269E-02  -2.23550553E-04  0.973998249      0.963806391      0.298423082      -1.32460182E-03  0.253546029       1.92169100E-05
   6.11648858E-02  -3.08956922E-04  0.975551307      0.965965092      0.295133978      -1.32228120E-03  0.250670910       2.59215012E-05
   7.13587478E-02  -4.03728453E-04  0.977076054      0.968086839      0.291469753      -1.26871921E-03  0.247480303       3.36449593E-05
   8.15525427E-02  -5.06357115E-04  0.978585005      0.970188439      0.287472755      -1.18340435E-03  0.244009987       4.16934490E-05
   9.17462707E-02  -6.15430705E-04  0.980100930      0.972301066      0.283205867      -1.08473236E-03  0.240312546       4.98173758E-05
  0.101939946      -7.29613879E-04  0.981660068      0.974475622      0.278736532      -9.85686318E-04  0.236443654       5.84861264E-05
  0.112133577      -8.47629446E-04  0.983316183      0.976788163      0.274109185      -8.90038034E-04  0.232438594       6.89290464E-05
  0.122327171      -9.68243345E-04  0.985145867      0.979346514      0.269319624      -7.93944520E-04  0.228290543       8.20374116E-05
  0.132520750      -1.09024998E-03  0.987250507      0.982293665      0.264298707      -6.88741740E-04  0.223936826       9.90810804E-05
  0.142714337      -1.21245917E-03  0.989752829      0.985802889      0.258916497      -5.64491900E-04  0.219262883       1.21202320E-04
  0.152907923      -1.33368257E-03  0.992780864      0.990055203      0.253009081      -4.10068285E-04  0.214126125       1.48831401E-04
  0.163101539      -1.45272142E-03  0.996430635      0.995188057      0.246430874      -2.10171638E-04  0.208402157       1.82465534E-04
  0.173295200      -1.56835280E-03   1.00070858       1.00121510      0.239130497       5.76562488E-05  0.202051044       2.22703355E-04
  0.183488905      -1.67931605E-03   1.00546908       1.00793636      0.231232226       4.21240722E-04  0.195187896       2.69105192E-04
  0.193682685      -1.78429752E-03   1.01038229       1.01489127      0.223082975       9.05279594E-04  0.188121796       3.21148895E-04
  0.203876525      -1.88191328E-03   1.01496899       1.02140510      0.215220168       1.51798385E-03  0.181324765       3.77985649E-04
  0.214070454      -1.97069068E-03   1.01871288       1.02674603      0.208249584       2.24148552E-03  0.175323322       4.38661315E-04
  0.224264458      -2.04904471E-03   1.02120268       1.03032863      0.202680886       3.03537655E-03  0.170555428       5.04436903E-04
  0.234458551      -2.11525219E-03   1.02223825       1.03186297      0.198799983       3.85182863E-03  0.167262629       5.73522411E-04
  0.244652733      -2.16741930E-03   1.02184689       1.03138602      0.196633875       4.65291180E-03  0.165461957       6.47181645E-04
  0.254846990      -2.20344099E-03   1.02023113       1.02918541      0.195999995       5.42124687E-03  0.164991125       7.26671889E-04
  0.265041292      -2.22095218E-03   1.01768470       1.02567756      0.196597144       6.16026809E-03  0.165587485       8.11251812E-04
  0.275235593      -2.21726228E-03   1.01451528       1.02129984      0.198090419       6.88853627E-03  0.166960806       9.00896266E-04
  0.285429865      -2.18927371E-03   1.01099980       1.01644480      0.200167105       7.63272913E-03  0.168840960       9.95406881E-04
  0.295624018      -2.13337177E-03   1.00736487       1.01143229      0.202561080       8.42313748E-03  0.170998454       1.09447725E-03
  0.305817962      -2.04527588E-03   1.00378549       1.00650954      0.205057308       9.29076970E-03  0.173247933       1.19879446E-03
  0.316011488      -1.91983546E-03   1.00039148       1.00185907      0.207485035       1.02691315E-02  0.175442860       1.30934326E-03
  0.326204360      -1.75073801E-03  0.997274637      0.997608244      0.209710687       1.13957943E-02  0.177469686       1.42607151E-03
  0.336396307      -1.53008103E-03  0.994489491      0.993833184      0.211632967       1.27170058E-02  0.179244295       1.55013893E-03
  0.346586645      -1.24772848E-03  0.992052734      0.990557492      0.213181704       1.42940236E-02  0.180712208       1.68324448E-03
  0.356774658      -8.90274358E-04  0.989939928      0.987747252      0.214320779       1.62130278E-02  0.181853190       1.82697782E-03
  0.366958946      -4.39326104E-04  0.988083661      0.985308886      0.215049386       1.86177362E-02  0.182686448       1.98300928E-03
  0.377137065       1.33766516E-04  0.986388922      0.983110070      0.215428814       2.21253559E-02  0.183333278       2.15219613E-03
  0.387299746       9.32033930E-04  0.984653413      0.980870008      0.216030300       2.74214074E-02  0.184398517       2.33647833E-03
  0.397434235       2.03104783E-03  0.982584655      0.978187859      0.217460990       3.42897400E-02  0.186476558       2.54277838E-03
  0.407523632       3.48527054E-03  0.979988992      0.974805892      0.220015079       4.27562296E-02  0.189928249       2.78257346E-03
  0.417543113       5.36030158E-03  0.976723969      0.970543623      0.224004835       5.32710664E-02  0.195217058       3.07274330E-03
  0.427456856       7.73026003E-03  0.972646058      0.965222299      0.229997322       6.64104000E-02  0.203100756       3.43217421E-03
  0.437217921       1.06651187E-02  0.967572868      0.958608747      0.239041924       8.26548263E-02  0.214760795       3.87811102E-03
  0.446780443       1.41935814E-02  0.961209476      0.950305581      0.253023505      0.101613820      0.231762379       4.41636704E-03
  0.456144422       1.82216074E-02  0.953196228      0.939805269      0.274554878      0.120004714      0.255036116       5.02573512E-03
  0.465438336       2.24102195E-02  0.943728268      0.927329957      0.304297417      0.128983811      0.281786859       5.63801266E-03
  0.474928796       2.61229333E-02  0.934835911      0.915700972      0.334761113      0.116988808      0.302819073       6.27253950E-03
  0.484786808       2.86871437E-02  0.929938734      0.909699082      0.351661623       8.28861594E-02  0.308730453       7.04975985E-03
  0.494905144       2.98680626E-02  0.930652797      0.911565900      0.348237127       4.14059572E-02  0.299474120       8.02525505E-03
  0.505094886       2.98680626E-02  0.935485899      0.919198930      0.329627246       4.24322579E-03  0.281066388       9.11218859E-03
  0.515213192       2.86871418E-02  0.941924989      0.929242074      0.301365435      -2.98536737E-02  0.257687688       1.03755184E-02
  0.525071204       2.61229314E-02  0.949116766      0.940470159      0.265959322      -5.88056333E-02  0.231261417       1.17374780E-02
  0.534561634       2.24102195E-02  0.957578838      0.953149736      0.228622809      -7.30695054E-02  0.203321055       1.27028339E-02
  0.543855608       1.82216056E-02  0.967122138      0.966526151      0.196181014      -6.99322447E-02  0.176076800       1.27557488E-02
  0.553219557       1.41935805E-02  0.976525486      0.978708863      0.172679886      -5.72906956E-02  0.153592035       1.17351748E-02
  0.562782109       1.06651178E-02  0.985033512      0.988780618      0.158496484      -4.38231304E-02  0.138716385       9.82873607E-03
  0.572543144       7.73025956E-03  0.992697239      0.997183919      0.151717320      -3.27853598E-02  0.130888775       7.44134653E-03
  0.582456887       5.36030112E-03  0.999619186       1.00458252      0.149856642      -2.40837317E-02  0.127959862       5.10523748E-03
  0.592476368       3.48527008E-03   1.00570345       1.01135945      0.150824130      -1.69683434E-02  0.127914637       3.33328592E-03