 title = "grid"
                                   variables = "x","y","rho","P","u","v","M","S"
 zone n=        3000  e =        5742  et=quadrilateral, f=fepoint
   0.00000000       0.00000000      0.982450545      0.975529015      0.230313048      -9.62462742E-04  0.195341066       1.20317563E-05
   1.00000000       0.00000000      0.944025040      0.931189597      0.272625297       3.65371758E-04  0.231993169       9.35120694E-03
   1.00000000      0.300000012      0.949216306      0.931211412      0.416528583      -3.01867898E-04  0.355417937       1.69706158E-03
   0.00000000      0.300000012      0.971102059      0.959779322      0.282490194       2.37905129E-04  0.240152046       1.29267573E-06
   1.00000000       1.03448275E-02  0.944806576      0.931335270      0.277638525       8.36941297E-04  0.236339390       8.34912807E-03
   1.00000000       2.06896551E-02  0.945673883      0.931398630      0.284934103       1.34296063E-03  0.242654383       7.13262521E-03
   1.00000000       3.10344826E-02  0.946315467      0.931474984      0.291728795       1.74284936E-03  0.248516619       6.26503862E-03
   1.00000000       4.13793102E-02  0.946815252      0.931566298      0.298164427       2.04761536E-03  0.254055053       5.62387332E-03
   1.00000000       5.17241396E-02  0.947223365      0.931672812      0.304345667       2.26294389E-03  0.259363949       5.13492525E-03
   1.00000000       6.20689653E-02  0.947569609      0.931792676      0.310347468       2.39165500E-03  0.264510572       4.75187600E-03
   1.00000000       7.24137947E-02  0.947870553      0.931922495      0.316227168       2.43585487E-03  0.269545883       4.44664434E-03
   1.00000000       8.27586204E-02  0.948135793      0.932056665      0.322027713       2.39919499E-03  0.274508238       4.19892743E-03
   1.00000000       9.31034461E-02  0.948369741      0.932187974      0.327780217       2.28812592E-03  0.279425740       3.99436057E-03
   1.00000000      0.103448279      0.948574007      0.932307780      0.333502322       2.11232249E-03  0.284314841       3.82138044E-03
   1.00000000      0.113793105      0.948747814      0.932407320      0.339199901       1.88469491E-03  0.289181828       3.67161073E-03
   1.00000000      0.124137931      0.948890150      0.932478487      0.344866186       1.62080338E-03  0.294022083       3.53791378E-03
   1.00000000      0.134482756      0.948999465      0.932514131      0.350484103       1.33773126E-03  0.298822105       3.41486000E-03
   1.00000000      0.144827589      0.949075460      0.932510316      0.356027633       1.05287426E-03  0.303560406       3.29870358E-03
   1.00000000      0.155172408      0.949119866      0.932465672      0.361466080       7.82122894E-04  0.308211386       3.18527594E-03
   1.00000000      0.165517241      0.949135721      0.932382703      0.366767228       5.39026514E-04  0.312747627       3.07290070E-03
   1.00000000      0.175862074      0.949127436      0.932265878      0.371900767       3.33648786E-04  0.317143351       2.95983255E-03
   1.00000000      0.186206892      0.949101388      0.932122350      0.376841396       1.72240412E-04  0.321376771       2.84427777E-03
   1.00000000      0.196551725      0.949063063      0.931960404      0.381571651       5.72658464E-05  0.325432479       2.72709504E-03
   1.00000000      0.206896558      0.949019253      0.931789160      0.386082828      -1.24570188E-05  0.329302609       2.60794163E-03
   1.00000000      0.217241377      0.948976219      0.931617200      0.390374869      -4.16811599E-05  0.332986593       2.48687156E-03
   1.00000000      0.227586210      0.948939264      0.931452513      0.394456506      -3.79574412E-05  0.336491406       2.36462057E-03
   1.00000000      0.237931028      0.948913276      0.931301713      0.398343146      -1.15279336E-05  0.339829743       2.24106945E-03
   1.00000000      0.248275861      0.948901415      0.931170583      0.402054340       2.44209568E-05  0.343017817       2.11772695E-03
   1.00000000      0.258620679      0.948905945      0.931063950      0.405609399       5.33455895E-05  0.346071482       1.99651532E-03
   1.00000000      0.268965513      0.948927224      0.930986464      0.409022152       5.43272181E-05  0.349001735       1.88190304E-03
   1.00000000      0.279310346      0.948963165      0.930943310      0.412297279      -2.59639336E-07  0.351811081       1.78255327E-03
   1.00000000      0.289655179      0.949012041      0.930944204      0.415442079      -1.50464664E-04  0.354503483       1.71139650E-03
  0.989898980      0.300000012      0.948407590      0.930083871      0.416560739      -2.40337162E-04  0.355509222       1.67880766E-03
  0.979797959      0.300000012      0.946611166      0.927585363      0.416649818      -3.00872722E-04  0.355726421       1.64314359E-03
  0.969696999      0.300000012      0.944982588      0.925320089      0.416470349      -3.64912557E-04  0.355701864       1.60871819E-03
  0.959595978      0.300000012      0.943514109      0.923276842      0.416019797      -4.35109512E-04  0.355433583       1.57535076E-03
  0.949494958      0.300000012      0.942215443      0.921468318      0.415286154      -5.11869090E-04  0.354910344       1.54297613E-03
  0.939393938      0.300000012      0.941110134      0.919925630      0.414249390      -5.94766403E-04  0.354113281       1.51071325E-03
  0.929292917      0.300000012      0.940227568      0.918688834      0.412887424      -6.82725571E-04  0.353020966       1.47890672E-03
  0.919191897      0.300000012      0.939596951      0.917797506      0.411182433      -7.74420158E-04  0.351615995       1.44745037E-03
  0.909090936      0.300000012      0.939241230      0.917282820      0.409126282      -8.68124771E-04  0.349889785       1.41663104E-03
  0.898989916      0.300000012      0.939174592      0.917163491      0.406721830      -9.62025893E-04  0.347843945       1.38587132E-03
  0.888888896      0.300000012      0.939402163      0.917446434      0.403983444      -1.05402991E-03  0.345490783       1.35520101E-03
  0.878787875      0.300000012      0.939920485      0.918127358      0.400934726      -1.14220788E-03  0.342851073       1.32482126E-03
  0.868686855      0.300000012      0.940719664      0.919192612      0.397605836      -1.22483436E-03  0.339952022       1.29454955E-03
  0.858585835      0.300000012      0.941784382      0.920622170      0.394032091      -1.30058953E-03  0.336825550       1.26489997E-03
  0.848484874      0.300000012      0.943096399      0.922390997      0.390251487      -1.36849086E-03  0.333506078       1.23539753E-03
  0.838383853      0.300000012      0.944634497      0.924470842      0.386304021      -1.42803486E-03  0.330030054       1.20634586E-03
  0.828282833      0.300000012      0.946375549      0.926830828      0.382230550      -1.47910707E-03  0.326434582       1.17791072E-03
  0.818181813      0.300000012      0.948295057      0.929437459      0.378072262      -1.52185303E-03  0.322757185       1.14967488E-03
  0.808080792      0.300000012      0.950367033      0.932255983      0.373870432      -1.55659288E-03  0.319035470       1.12196058E-03
  0.797979772      0.300000012      0.952564180      0.935249090      0.369666725      -1.58384384E-03  0.315307111       1.09455548E-03
  0.787878811      0.300000012      0.954857171      0.938377202      0.365502954      -1.60420709E-03  0.311610103       1.06759369E-03
  0.777777791      0.300000012      0.957215488      0.941598356      0.361421227      -1.61822571E-03  0.307982504       1.04098022E-03
  0.767676771      0.300000012      0.959606588      0.944868147      0.357463777      -1.62656268E-03  0.304462314       1.01470575E-03
  0.757575750      0.300000012      0.961996496      0.948139787      0.353672594      -1.62962812E-03  0.301087379       9.88923013E-04
  0.747474730      0.300000012      0.964350522      0.951365232      0.350089461      -1.62789552E-03  0.297895223       9.63339582E-04
  0.737373710      0.300000012      0.966633320      0.954495668      0.346754104      -1.62139151E-03  0.294921339       9.38311219E-04
  0.727272749      0.300000012      0.968811512      0.957484186      0.343703300      -1.61016081E-03  0.292198718       9.13202763E-04
  0.717171729      0.300000012      0.970853746      0.960287333      0.340968728      -1.59383460E-03  0.289755434       8.88489187E-04
  0.707070708      0.300000012      0.972734034      0.962868810      0.338574827      -1.57175784E-03  0.287613243       8.64331611E-04
  0.696969688      0.300000012      0.974433959      0.965203106      0.336535811      -1.54299149E-03  0.285784513       8.41237605E-04
  0.686868668      0.300000012      0.975944698      0.967276692      0.334853262      -1.50624197E-03  0.284270734       8.18448141E-04
  0.676767647      0.300000012      0.977268398      0.969092309      0.333514750      -1.46016921E-03  0.283060670       7.96090811E-04
  0.666666687      0.300000012      0.978418291      0.970668435      0.332492650      -1.40321092E-03  0.282129616       7.74861313E-04
  0.656565666      0.300000012      0.979418755      0.972038209      0.331744999      -1.33404229E-03  0.281440407       7.54224136E-04
  0.646464646      0.300000012      0.980302095      0.973246336      0.331218749      -1.25144841E-03  0.280945808       7.34201632E-04
  0.636363626      0.300000012      0.981105030      0.974343359      0.330853224      -1.15484477E-03  0.280592293       7.14533031E-04
  0.626262605      0.300000012      0.981863737      0.975379705      0.330585718      -1.04410865E-03  0.280324459       6.95426017E-04
  0.616161644      0.300000012      0.982610166      0.976399064      0.330356777      -9.19774349E-04  0.280090153       6.76054507E-04
  0.606060624      0.300000012      0.983368158      0.977434695      0.330115080      -7.82620220E-04  0.279844493       6.56558201E-04
  0.595959604      0.300000012      0.984151423      0.978504777      0.329819858      -6.34226308E-04  0.279552281       6.36067241E-04
  0.585858583      0.300000012      0.984961808      0.979612648      0.329442948      -4.76768619E-04  0.279189557       6.15350902E-04
  0.575757563      0.300000012      0.985791445      0.980747283      0.328968585      -3.12799937E-04  0.278743386       5.94163314E-04
  0.565656543      0.300000012      0.986624539      0.981886625      0.328392029      -1.45297192E-04  0.278210759       5.72542194E-04
  0.555555582      0.300000012      0.987439692      0.983001292      0.327718765       2.18707155E-05  0.277597487       5.50967641E-04
  0.545454562      0.300000012      0.988212824      0.984057248      0.326963454       1.84298304E-04  0.276917458       5.28834760E-04
  0.535353541      0.300000012      0.988919079      0.985020280      0.326147944       3.37985926E-04  0.276190460       5.06825279E-04
  0.525252521      0.300000012      0.989536345      0.985860109      0.325297534       4.81192925E-04  0.275439024       4.85501718E-04
  0.515151501      0.300000012      0.990048587      0.986554563      0.324432522       6.17134501E-04  0.274681151       4.65134624E-04
  0.505050480      0.300000012      0.990447283      0.987091780      0.323560774       7.52101128E-04  0.273923904       4.45833895E-04
  0.494949490      0.300000012      0.990730286      0.987468779      0.322678864       8.89774587E-04  0.273164451       4.27722931E-04
  0.484848499      0.300000012      0.990900457      0.987689555      0.321781039       1.02960959E-03  0.272397667       4.10803128E-04
  0.474747479      0.300000012      0.990966380      0.987766325      0.320858032       1.17475656E-03  0.271615237       3.95452138E-04
  0.464646459      0.300000012      0.990943432      0.987720311      0.319885790       1.33270945E-03  0.270795941       3.81269027E-04
  0.454545468      0.300000012      0.990849018      0.987575829      0.318829715       1.50460086E-03  0.269909471       3.68370675E-04
  0.444444448      0.300000012      0.990699112      0.987355053      0.317661971       1.68303319E-03  0.268931419       3.56576871E-04
  0.434343427      0.300000012      0.990506232      0.987074614      0.316371739       1.85891811E-03  0.267851919       3.45108565E-04
  0.424242437      0.300000012      0.990279019      0.986746907      0.314961284       2.02675327E-03  0.266672403       3.34230252E-04
  0.414141417      0.300000012      0.990022957      0.986379683      0.313441247       2.18455633E-03  0.265401423       3.24079301E-04
  0.404040396      0.300000012      0.989739597      0.985974610      0.311827153       2.33212230E-03  0.264052153       3.14075500E-04
  0.393939406      0.300000012      0.989425004      0.985526621      0.310138971       2.46996596E-03  0.262641490       3.04695684E-04
  0.383838385      0.300000012      0.989070117      0.985022187      0.308401287       2.59849126E-03  0.261190951       2.95000616E-04
  0.373737365      0.300000012      0.988658845      0.984439611      0.306644052       2.71758274E-03  0.259726495       2.85616610E-04
  0.363636374      0.300000012      0.988170385      0.983749628      0.304902762       2.82668462E-03  0.258279294       2.76329927E-04
  0.353535354      0.300000012      0.987579644      0.982917070      0.303217143       2.92562786E-03  0.256884307       2.66843941E-04
  0.343434334      0.300000012      0.986859024      0.981903672      0.301627785       3.01465951E-03  0.255577207       2.57251319E-04
  0.333333343      0.300000012      0.985980213      0.980670691      0.300175011       3.09227011E-03  0.254393518       2.47994903E-04
  0.323232323      0.300000012      0.984917164      0.979181409      0.298897803       3.15627572E-03  0.253367662       2.38451175E-04
  0.313131303      0.300000012      0.983647823      0.977406144      0.297830969       3.20449332E-03  0.252530158       2.29265541E-04
  0.303030312      0.300000012      0.982158422      0.975325823      0.297002226       3.23467632E-03  0.251905322       2.20064074E-04
  0.292929292      0.300000012      0.980445087      0.972935319      0.296429396       3.24455253E-03  0.251508653       2.10413709E-04
  0.282828271      0.300000012      0.978516340      0.970247328      0.296118617       3.23225674E-03  0.251345068       2.00638548E-04
  0.272727281      0.300000012      0.976393998      0.967292368      0.296062410       3.19649279E-03  0.251407504       1.90219842E-04
  0.262626261      0.300000012      0.974113166      0.964120507      0.296239257       3.13674961E-03  0.251676112       1.79946423E-04
  0.252525240      0.300000012      0.971721828      0.960798383      0.296614528       3.05338297E-03  0.252119392       1.69306993E-04
  0.242424250      0.300000012      0.969277620      0.957406342      0.297141790       2.94783246E-03  0.252695233       1.58496201E-04
  0.232323229      0.300000012      0.966844857      0.954033017      0.297766328       2.82245013E-03  0.253354013       1.47126615E-04
  0.222222224      0.300000012      0.964489639      0.950770497      0.298428655       2.68035522E-03  0.254041672       1.36118382E-04
  0.212121218      0.300000012      0.962276399      0.947707117      0.299068451       2.52557267E-03  0.254703492       1.25225633E-04
  0.202020198      0.300000012      0.960262954      0.944922686      0.299628735       2.36240798E-03  0.255287707       1.15217641E-04
  0.191919193      0.300000012      0.958498538      0.942484200      0.300058872       2.19525001E-03  0.255748332       1.06036663E-04
  0.181818187      0.300000012      0.957020998      0.940443158      0.300317198       2.02823686E-03  0.256047517       9.78186727E-05
  0.171717167      0.300000012      0.955856323      0.938834488      0.300372660       1.86501059E-03  0.256157190       9.06269997E-05
  0.161616161      0.300000012      0.955018103      0.937676191      0.300205827       1.70842477E-03  0.256059855       8.43629241E-05
  0.151515156      0.300000012      0.954509079      0.936971128      0.299808472       1.56036858E-03  0.255748302       7.85682350E-05
  0.141414136      0.300000012      0.954322338      0.936709344      0.299183577       1.42179604E-03  0.255225331       7.30250031E-05
  0.131313130      0.300000012      0.954442561      0.936870158      0.298344374       1.29286293E-03  0.254503131       6.83758408E-05
  0.121212125      0.300000012      0.954848766      0.937424302      0.297312886       1.17298122E-03  0.253601789       6.39986247E-05
  0.111111112      0.300000012      0.955515921      0.938337088      0.296119183       1.06091646E-03  0.252548516       5.93457371E-05
  0.101010099      0.300000012      0.956415474      0.939569116      0.294799417       9.55159776E-04  0.251376003       5.41005284E-05
   9.09090936E-02  0.300000012      0.957516968      0.941078603      0.293394834       8.54075421E-04  0.250121236       4.79780138E-05
   8.08080807E-02  0.300000012      0.958789408      0.942822576      0.291949272       7.56501511E-04  0.248823553       4.01847064E-05
   7.07070678E-02  0.300000012      0.960201323      0.944757998      0.290505916       6.62408536E-04  0.247521505       3.07597220E-05
   6.06060624E-02  0.300000012      0.961720884      0.946842611      0.289102137       5.73645055E-04  0.246248603       2.10516155E-05
   5.05050495E-02  0.300000012      0.963317633      0.949036419      0.287763327       4.94125939E-04  0.245027810       1.27907842E-05
   4.04040404E-02  0.300000012      0.964963615      0.951302171      0.286499500       4.28582804E-04  0.243868992       7.30343163E-06
   3.03030312E-02  0.300000012      0.966633379      0.953604639      0.285308570       3.79030214E-04  0.242771611       4.28408384E-06
   2.02020202E-02  0.300000012      0.968303382      0.955910504      0.284187794       3.41358769E-04  0.241734609       2.77720392E-06
   1.01010101E-02  0.300000012      0.969946921      0.958182156      0.283156872       3.00111540E-04  0.240776047       2.09733844E-06
   0.00000000      0.289655179      0.971222699      0.959945917      0.282262385       2.38333101E-04  0.239952460       9.31322575E-07
   0.00000000      0.279310346      0.971300066      0.960052788      0.281947136       2.69248994E-04  0.239680663       7.22706318E-07
   0.00000000      0.268965513      0.971401691      0.960193396      0.281557530       3.13804427E-04  0.239344507       7.35744834E-07
   0.00000000      0.258620679      0.971531212      0.960372686      0.281076670       3.68419569E-04  0.238929421       7.61821866E-07
   0.00000000      0.248275861      0.971692264      0.960595429      0.280489981       4.33428562E-04  0.238422886       6.01634383E-07
   0.00000000      0.237931028      0.971888721      0.960867226      0.279781610       5.09886246E-04  0.237811297       5.42029738E-07
   0.00000000      0.227586210      0.972124577      0.961193681      0.278933227       5.99376508E-04  0.237078831       4.65661287E-07
   0.00000000      0.217241377      0.972404778      0.961581469      0.277924657       7.03106984E-04  0.236208186       3.91155481E-07
   0.00000000      0.206896558      0.972733676      0.962036729      0.276733875       8.22187518E-04  0.235180542       2.35624611E-07
   0.00000000      0.196551725      0.973115742      0.962565720      0.275338024       9.56776785E-04  0.233976305       2.12341547E-07
   0.00000000      0.186206892      0.973554552      0.963173509      0.273714542       1.10597047E-03  0.232576206       2.76602805E-07
   0.00000000      0.175862074      0.974052131      0.963862956      0.271842927       1.26772176E-03  0.230962873       4.63798642E-07
   0.00000000      0.165517241      0.974608839      0.964634478      0.269707412       1.43808639E-03  0.229123086       6.58445060E-07
   0.00000000      0.155172408      0.975221932      0.965484679      0.267299354       1.61088479E-03  0.227049649       1.22282654E-06
   0.00000000      0.144827589      0.975885868      0.966405809      0.264620274       1.77809352E-03  0.224744275       2.05915421E-06
   0.00000000      0.134482756      0.976591289      0.967384875      0.261684716       1.92977069E-03  0.222219914       3.03890556E-06
   0.00000000      0.124137931      0.977325857      0.968404830      0.258522630       2.05423380E-03  0.219502509       4.18070704E-06
   0.00000000      0.113793105      0.978073657      0.969443738      0.255180895       2.13933620E-03  0.216632649       5.56278974E-06
   0.00000000      0.103448279      0.978817165      0.970477164      0.251723200       2.17301096E-03  0.213665083       7.17490911E-06
   0.00000000       9.31034461E-02  0.979537547      0.971478999      0.248228163       2.14454159E-03  0.210667282       8.99191946E-06
   0.00000000       8.27586204E-02  0.980217040      0.972424150      0.244786605       2.04584026E-03  0.207717016       1.05388463E-05
   0.00000000       7.24137947E-02  0.980838954      0.973289549      0.241497263       1.87161495E-03  0.204898641       1.21658668E-05
   0.00000000       6.20689653E-02  0.981389284      0.974055886      0.238460824       1.61987217E-03  0.202298075       1.39186159E-05
   0.00000000       5.17241396E-02  0.981857955      0.974708676      0.235775501       1.29186164E-03  0.199999124       1.54552981E-05
   0.00000000       4.13793102E-02  0.982237995      0.975237966      0.233530656       8.91630596E-04  0.198077962       1.65048987E-05
   0.00000000       3.10344826E-02  0.982526124      0.975639760      0.231802315       4.26484359E-04  0.196599230       1.78040937E-05
   0.00000000       2.06896551E-02  0.982723534      0.975915074      0.230645344      -9.09351293E-05  0.195609689       1.87242404E-05
   0.00000000       1.03448275E-02  0.982836723      0.976073325      0.230086505      -6.34207914E-04  0.195131883       1.95764005E-05
   1.01942774E-02  -1.06002917E-05  0.984247208      0.978048444      0.229316086      -8.80680745E-04  0.194422096       3.34242359E-05
   2.03885511E-02  -4.05888240E-05  0.988141596      0.983503163      0.227794573      -1.00777333E-03  0.192976892       6.65513799E-05
   3.05827484E-02  -8.74972393E-05  0.991466045      0.988158941      0.227015063      -1.02866138E-03  0.192185506       8.70497897E-05
   4.07768898E-02  -1.49138228E-04  0.994253933      0.992060721      0.226822019      -9.90150846E-04  0.191913217       9.67022497E-05
   5.09709269E-02  -2.23550553E-04  0.996529281      0.995244265      0.227117464      -9.22827050E-04  0.192074761       1.00385281E-04
   6.11648858E-02  -3.08956922E-04  0.998318851      0.997748315      0.227840841      -8.47212505E-04  0.192617044       1.01375568E-04
   7.13587478E-02  -4.03728453E-04  0.999650776      0.999614060      0.228952751      -7.73589651E-04  0.193505049       1.03001832E-04
   8.15525427E-02  -5.06357115E-04   1.00055516       1.00088203      0.230422467      -7.05367478E-04  0.194711640       1.04555860E-04
   9.17462707E-02  -6.15430705E-04   1.00105977       1.00159061      0.232221171      -6.41666469E-04  0.196211457       1.06405059E-04
  0.101939946      -7.29613879E-04   1.00119030       1.00177610      0.234321460      -5.80633001E-04  0.197980478       1.09061890E-04
  0.112133577      -8.47629446E-04   1.00097072       1.00147128      0.236697569      -5.19738474E-04  0.199996457       1.11861329E-04
  0.122327171      -9.68243345E-04   1.00042295       1.00070798      0.239326581      -4.56958165E-04  0.202239424       1.15724106E-04
  0.132520750      -1.09024998E-03  0.999568760      0.999516785      0.242187157      -3.90131027E-04  0.204691082       1.20565404E-04
  0.142714337      -1.21245917E-03  0.998431861      0.997931421      0.245257989      -3.17134167E-04  0.207332984       1.26411032E-04
  0.152907923      -1.33368257E-03  0.997037888      0.995988131      0.248515144      -2.35448693E-04  0.210144401       1.33199734E-04
  0.163101539      -1.45272142E-03  0.995416582      0.993728876      0.251928747      -1.42008226E-04  0.213099405       1.40697462E-04
  0.173295200      -1.56835280E-03  0.993602216      0.991201341      0.255461633      -3.31144765E-05  0.216165811       1.48106832E-04
  0.183488905      -1.67931605E-03  0.991633356      0.988460004      0.259068221       9.53189665E-05  0.219303787       1.55495945E-04
  0.193682685      -1.78429752E-03  0.989552200      0.985563815      0.262695968       2.47966673E-04  0.222467497       1.62505079E-04
  0.203876525      -1.88191328E-03  0.987402737      0.982574880      0.266287416       4.29861393E-04  0.225606471       1.69500709E-04
  0.214070454      -1.97069068E-03  0.985230148      0.979555428      0.269783437       6.46294851E-04  0.228668764       1.75583176E-04
  0.224264458      -2.04904471E-03  0.983077526      0.976565778      0.273126572       9.03268519E-04  0.231603682       1.81008130E-04
  0.234458551      -2.11525219E-03  0.980983436      0.973660111      0.276264459       1.20747997E-03  0.234364763       1.86568126E-04
  0.244652733      -2.16741930E-03  0.978981733      0.970885098      0.279151976       1.56662858E-03  0.236911908       1.92094594E-04
  0.254846990      -2.20344099E-03  0.977098882      0.968277037      0.281752676       1.98974484E-03  0.239212751       1.97349116E-04
  0.265041292      -2.22095218E-03  0.975352824      0.965860486      0.284040034       2.48745340E-03  0.241243631       2.02556141E-04
  0.275235593      -2.21726228E-03  0.973753393      0.963648260      0.285996944       3.07202525E-03  0.242989600       2.07123347E-04
  0.285429865      -2.18927371E-03  0.972301483      0.961642027      0.287615210       3.75806075E-03  0.244443581       2.12052837E-04
  0.295624018      -2.13337177E-03  0.970990896      0.959832728      0.288893610       4.56342427E-03  0.245605394       2.17193738E-04
  0.305817962      -2.04527588E-03  0.969809830      0.958203435      0.289835274       5.50980354E-03  0.246479109       2.22194940E-04
  0.316011488      -1.91983546E-03  0.968742192      0.956732333      0.290444404       6.62525510E-03  0.247070476       2.27874145E-04
  0.326204360      -1.75073801E-03  0.967770875      0.955394983      0.290722370       7.94623327E-03  0.247383893       2.33430415E-04
  0.336396307      -1.53008103E-03  0.966878891      0.954167783      0.290662766       9.52212978E-03  0.247418374       2.39118934E-04
  0.346586645      -1.24772848E-03  0.966051757      0.953031659      0.290246487       1.14226583E-02  0.247164205       2.45880336E-04
  0.356774658      -8.90274358E-04  0.965280533      0.951974213      0.289434791       1.37496023E-02  0.246598467       2.53757462E-04
  0.366958946      -4.39326104E-04  0.964564383      0.950994730      0.288161725       1.66781545E-02  0.245682955       2.63387337E-04
  0.377137065       1.33766516E-04  0.963927448      0.950126469      0.286365241       2.09847856E-02  0.244427875       2.74758786E-04
  0.387299746       9.32033930E-04  0.963262558      0.949221671      0.284632921       2.75316834E-02  0.243462369       2.88052484E-04
  0.397434235       2.03104783E-03  0.962344468      0.947970212      0.283620596       3.59709449E-02  0.243448287       3.03773209E-04
  0.407523632       3.48527054E-03  0.961072981      0.946238458      0.283605844       4.62350100E-02  0.244751230       3.26197594E-04
  0.417543113       5.36030158E-03  0.959334433      0.943878412      0.284985483       5.87974079E-02  0.247934893       3.63817438E-04
  0.427456856       7.73026003E-03  0.956871331      0.940550864      0.288647205       7.43024573E-02  0.254080385       4.31369990E-04
  0.437217921       1.06651187E-02  0.953196585      0.935616136      0.296304703       9.33428928E-02  0.265010536       5.57726249E-04
  0.446780443       1.41935814E-02  0.947459400      0.927955925      0.310995668      0.115648307      0.283355802       7.88658857E-04
  0.456144422       1.82216074E-02  0.938365221      0.915855467      0.337181568      0.137809873      0.311613351       1.16577372E-03
  0.465438336       2.24102195E-02  0.924801648      0.897830069      0.377991229      0.150001124      0.348820239       1.67191401E-03
  0.474928796       2.61229333E-02  0.908116043      0.875706255      0.427150458      0.138220087      0.386395544       2.21174955E-03
  0.484786808       2.86871437E-02  0.893112123      0.855951250      0.467403352       9.86058116E-02  0.412393481       2.71857902E-03
  0.494905144       2.98680626E-02  0.883718431      0.843835294      0.486468017       4.61107381E-02  0.422630310       3.26557457E-03
  0.505094886       2.98680626E-02  0.879060984      0.838168383      0.487123877      -5.66992816E-03  0.421646684       3.92513722E-03
  0.515213192       2.86871418E-02  0.876480281      0.835591078      0.473278731      -5.86535484E-02  0.412797332       4.96155769E-03
  0.525071204       2.61229314E-02  0.876305759      0.836561561      0.443807811     -0.109588139      0.395423025       6.40114397E-03
  0.534561634       2.24102195E-02  0.880458653      0.843184531      0.403775722     -0.141588017      0.369531929       7.66775385E-03
  0.543855608       1.82216056E-02  0.888376176      0.854370952      0.364296228     -0.144886509      0.337873042       8.31415132E-03
  0.553219557       1.41935805E-02  0.896595001      0.865563929      0.333374858     -0.127592519      0.307044297       8.43738019E-03
  0.562782109       1.06651178E-02  0.902384222      0.873246789      0.313023478     -0.104086056      0.283408463       8.26376677E-03
  0.572543144       7.73025956E-03  0.905513108      0.877218306      0.301296681      -8.25047418E-02  0.268240839       7.95553997E-03
  0.582456887       5.36030112E-03  0.906819761      0.878703654      0.295255214      -6.47926927E-02  0.259529024       7.62857869E-03
  0.592476368       3.48527008E-03  0.907049954      0.878786027      0.292669475      -5.05888723E-02  0.255023599       7.36698881E-03