 title = "grid"
                                   variables = "x","y","rho","P","u","v","M","S"
 zone n=        3000  e =        5742  et=quadrilateral, f=fepoint
   0.00000000       0.00000000      0.966732204      0.953739882      0.302766502       2.49615143E-04  0.257621467       2.96160579E-06
   1.00000000       0.00000000      0.943984389      0.930741370      0.286380827       9.29269823E-04  0.243753091       8.93007964E-03
   1.00000000      0.300000012      0.950677395      0.932958245      0.348892659       2.29992802E-04  0.297655165       1.41789019E-03
   0.00000000      0.300000012      0.977769136      0.969017088      0.246024534      -8.11994978E-05  0.208865583       1.37928873E-06
   1.00000000       1.03448275E-02  0.944815576      0.930937827      0.291338861       2.24849256E-03  0.248062164       7.90895335E-03
   1.00000000       2.06896551E-02  0.945747077      0.931042135      0.298402876       3.72565142E-03  0.254200071       6.64144009E-03
   1.00000000       3.10344826E-02  0.946464062      0.931165159      0.304445773       4.99455770E-03  0.259443671       5.71261160E-03
   1.00000000       4.13793102E-02  0.947037399      0.931310415      0.309660882       6.09674165E-03  0.263962895       5.02073020E-03
   1.00000000       5.17241396E-02  0.947516024      0.931478083      0.314173877       7.05512613E-03  0.267869025       4.49340045E-03
   1.00000000       6.20689653E-02  0.947930515      0.931665540      0.318065971       7.88094196E-03  0.271234363       4.08233702E-03
   1.00000000       7.24137947E-02  0.948298752      0.931868792      0.321396023       8.57805368E-03  0.274110883       3.75673734E-03
   1.00000000       8.27586204E-02  0.948631108      0.932081938      0.324213386       9.14667640E-03  0.276542127       3.49481590E-03
   1.00000000       9.31034461E-02  0.948933303      0.932297170      0.326564431       9.58586950E-03  0.278568834       3.27981636E-03
   1.00000000      0.103448279      0.949206889      0.932506979      0.328496575       9.89508815E-03  0.280232280       3.10122222E-03
   1.00000000      0.113793105      0.949452937      0.932703614      0.330061018       1.00751715E-02  0.281577110       2.94926949E-03
   1.00000000      0.124137931      0.949670732      0.932879388      0.331312388       1.01293707E-02  0.282650828       2.81655416E-03
   1.00000000      0.134482756      0.949859142      0.933028936      0.332309633       1.00633325E-02  0.283504516       2.69916840E-03
   1.00000000      0.144827589      0.950018883      0.933148324      0.333113968       9.88507178E-03  0.284191251       2.59166770E-03
   1.00000000      0.155172408      0.950150490      0.933235705      0.333786815       9.60472412E-03  0.284764200       2.49134377E-03
   1.00000000      0.165517241      0.950256050      0.933291852      0.334387332       9.23357531E-03  0.285274476       2.39599682E-03
   1.00000000      0.175862074      0.950338662      0.933319688      0.334969401       8.78346339E-03  0.285768479       2.30411626E-03
   1.00000000      0.186206892      0.950402439      0.933323622      0.335580289       8.26552603E-03  0.286287099       2.21439824E-03
   1.00000000      0.196551725      0.950451612      0.933309019      0.336258918       7.68959569E-03  0.286863685       2.12633424E-03
   1.00000000      0.206896558      0.950490534      0.933281720      0.337034941       7.06356717E-03  0.287523776       2.03971192E-03
   1.00000000      0.217241377      0.950523317      0.933247030      0.337930650       6.39306195E-03  0.288286537       1.95429102E-03
   1.00000000      0.227586210      0.950553954      0.933209538      0.338960201       5.68137271E-03  0.289164156       1.86896324E-03
   1.00000000      0.237931028      0.950585127      0.933173001      0.340131730       4.93022054E-03  0.290163785       1.78389810E-03
   1.00000000      0.248275861      0.950618565      0.933139920      0.341447920       4.14045854E-03  0.291287720       1.69921666E-03
   1.00000000      0.258620679      0.950653732      0.933111131      0.342906475       3.31311673E-03  0.292534053       1.61659904E-03
   1.00000000      0.268965513      0.950688362      0.933086693      0.344499797       2.45223171E-03  0.293896228       1.53942034E-03
   1.00000000      0.279310346      0.950716436      0.933063745      0.346217602       1.56820728E-03  0.295365274       1.47341751E-03
   1.00000000      0.289655179      0.950726330      0.933033526      0.348073632       6.87248365E-04  0.296952575       1.42651238E-03
  0.989898980      0.300000012      0.950898826      0.933248103      0.348417044       4.16576338E-04  0.297237962       1.40247121E-03
  0.979797959      0.300000012      0.951370001      0.933866918      0.347546250       4.91205894E-04  0.296470344       1.37180462E-03
  0.969696999      0.300000012      0.951726615      0.934328794      0.346711725       5.44559269E-04  0.295740843       1.34156644E-03
  0.959595978      0.300000012      0.951943874      0.934599161      0.345961332       5.82904380E-04  0.295091808       1.31134130E-03
  0.949494958      0.300000012      0.951998472      0.934646666      0.345332593       6.09531126E-04  0.294556499       1.28183141E-03
  0.939393938      0.300000012      0.951869011      0.934441686      0.344857156       6.26072404E-04  0.294163257       1.25294738E-03
  0.929292917      0.300000012      0.951536119      0.933957696      0.344562799       6.33685268E-04  0.293936908       1.22452900E-03
  0.919191897      0.300000012      0.950983226      0.933172166      0.344473124       6.33404590E-04  0.293898672       1.19684264E-03
  0.909090936      0.300000012      0.950198650      0.932069063      0.344606549       6.26215478E-04  0.294065028       1.16950460E-03
  0.898989916      0.300000012      0.949176252      0.930640459      0.344974458       6.13206415E-04  0.294446260       1.14285201E-03
  0.888888896      0.300000012      0.947917759      0.928889036      0.345579505       5.95695747E-04  0.295044839       1.11653097E-03
  0.878787875      0.300000012      0.946434200      0.926830530      0.346413761       5.75108279E-04  0.295853555       1.09078549E-03
  0.868686855      0.300000012      0.944746554      0.924494207      0.347457677       5.52861195E-04  0.296854734       1.06551312E-03
  0.858585835      0.300000012      0.942885220      0.921922266      0.348681033       5.30222314E-04  0.298021168       1.04064122E-03
  0.848484874      0.300000012      0.940888107      0.919166863      0.350044757       5.08080295E-04  0.299317330       1.01587549E-03
  0.838383853      0.300000012      0.938797176      0.916286290      0.351505071       4.86873498E-04  0.300703377       9.91761684E-04
  0.828282833      0.300000012      0.936654091      0.913337350      0.353018552       4.66398778E-04  0.302139789       9.67767090E-04
  0.818181813      0.300000012      0.934495509      0.910370409      0.354547620       4.45950456E-04  0.303592056       9.44081694E-04
  0.808080792      0.300000012      0.932349741      0.907424092      0.356064677       4.24497441E-04  0.305034876       9.20813531E-04
  0.797979772      0.300000012      0.930234611      0.904522657      0.357554644       4.00830875E-04  0.306453943       8.97914171E-04
  0.787878811      0.300000012      0.928156912      0.901675642      0.359015107       3.73819523E-04  0.307846665       8.75856727E-04
  0.777777791      0.300000012      0.926115334      0.898880899      0.360453486       3.42736195E-04  0.309219480       8.54320824E-04
  0.767676771      0.300000012      0.924103260      0.896128774      0.361883819       3.07148817E-04  0.310584903       8.32926482E-04
  0.757575750      0.300000012      0.922111690      0.893407285      0.363321662       2.66752235E-04  0.311956763       8.11755657E-04
  0.747474730      0.300000012      0.920133114      0.890706599      0.364780247       2.21796494E-04  0.313346893       7.91534781E-04
  0.737373710      0.300000012      0.918164968      0.888022780      0.366266489       1.72722052E-04  0.314761460       7.71567225E-04
  0.727272749      0.300000012      0.916210830      0.885360360      0.367779344       1.19958306E-04  0.316199392       7.51767308E-04
  0.717171729      0.300000012      0.914280415      0.882732511      0.369309068       6.38968995E-05  0.317651629       7.32067972E-04
  0.707070708      0.300000012      0.912389696      0.880160689      0.370837688       5.09960228E-06  0.319101661       7.12510198E-04
  0.696969688      0.300000012      0.910558999      0.877672076      0.372340232      -5.61477245E-05  0.320526421       6.92930073E-04
  0.686868668      0.300000012      0.908812225      0.875297964      0.373787194      -1.19412587E-04  0.321898937       6.72589988E-04
  0.676767647      0.300000012      0.907174110      0.873071790      0.375146419      -1.84541146E-04  0.323189467       6.51739538E-04
  0.666666687      0.300000012      0.905668736      0.871025801      0.376385868      -2.51231744E-04  0.324368417       6.30658120E-04
  0.656565666      0.300000012      0.904318094      0.869189143      0.377474993      -3.19331506E-04  0.325407684       6.09241426E-04
  0.646464646      0.300000012      0.903140724      0.867586374      0.378387094      -3.88564833E-04  0.326282561       5.87467104E-04
  0.636363626      0.300000012      0.902150571      0.866236627      0.379099935      -4.58677532E-04  0.326972544       5.66169620E-04
  0.626262605      0.300000012      0.901357472      0.865152895      0.379596740      -5.29280340E-04  0.327462047       5.45639545E-04
  0.616161644      0.300000012      0.900766671      0.864341676      0.379866511      -6.00051775E-04  0.327741146       5.25511801E-04
  0.606060624      0.300000012      0.900378048      0.863802552      0.379904449      -6.70103356E-04  0.327805519       5.05734235E-04
  0.595959604      0.300000012      0.900186837      0.863529563      0.379710734      -7.38578965E-04  0.327655464       4.86992300E-04
  0.585858583      0.300000012      0.900184453      0.863511026      0.379290313      -8.04410840E-04  0.327295870       4.69222665E-04
  0.575757563      0.300000012      0.900358200      0.863730192      0.378651381      -8.66058166E-04  0.326734722       4.52782959E-04
  0.565656543      0.300000012      0.900693119      0.864166856      0.377803832      -9.21589788E-04  0.325981736       4.37531620E-04
  0.555555582      0.300000012      0.901171863      0.864797831      0.376757681      -9.69037355E-04  0.325046927       4.23517078E-04
  0.545454562      0.300000012      0.901775897      0.865598142      0.375521690      -1.00689160E-03  0.323939353       4.10422683E-04
  0.535353541      0.300000012      0.902486801      0.866543233      0.374102354      -1.03470904E-03  0.322666138       3.98457050E-04
  0.525252521      0.300000012      0.903286517      0.867608964      0.372505128      -1.05493236E-03  0.321233451       3.87493521E-04
  0.515151501      0.300000012      0.904157341      0.868771195      0.370737702      -1.07291492E-03  0.319649369       3.77189368E-04
  0.505050480      0.300000012      0.905081689      0.870006502      0.368814081      -1.09399087E-03  0.317927450       3.67492437E-04
  0.494949490      0.300000012      0.906044006      0.871293902      0.366751552      -1.11972296E-03  0.316083819       3.58402729E-04
  0.484848499      0.300000012      0.907032788      0.872618079      0.364563704      -1.14872458E-03  0.314131141       3.50087881E-04
  0.474747479      0.300000012      0.908040345      0.873968482      0.362260252      -1.18199456E-03  0.312078387       3.42052430E-04
  0.464646459      0.300000012      0.909061134      0.875337541      0.359852403      -1.22201163E-03  0.309935749       3.34415585E-04
  0.454545468      0.300000012      0.910092831      0.876722097      0.357351959      -1.26794679E-03  0.307713658       3.26905400E-04
  0.444444448      0.300000012      0.911137104      0.878124297      0.354766011      -1.31600082E-03  0.305418164       3.19525599E-04
  0.434343427      0.300000012      0.912198305      0.879549623      0.352096081      -1.36265531E-03  0.303050399       3.11713666E-04
  0.424242437      0.300000012      0.913280785      0.881004453      0.349340290      -1.40656019E-03  0.300608546       3.04065645E-04
  0.414141417      0.300000012      0.914388716      0.882494688      0.346496522      -1.44768937E-03  0.298090428       2.96801329E-04
  0.404040396      0.300000012      0.915525138      0.884024024      0.343564987      -1.48659421E-03  0.295496285       2.89432704E-04
  0.393939406      0.300000012      0.916690767      0.885593534      0.340549052      -1.52396527E-03  0.292829096       2.81881541E-04
  0.383838385      0.300000012      0.917884052      0.887201190      0.337455511      -1.56022189E-03  0.290094852       2.74356455E-04
  0.373737365      0.300000012      0.919101238      0.888842046      0.334294409      -1.59561809E-03  0.287302524       2.66898423E-04
  0.363636374      0.300000012      0.920337021      0.890508711      0.331078768      -1.63013034E-03  0.284463763       2.59090215E-04
  0.353535354      0.300000012      0.921583951      0.892191350      0.327823728      -1.66374538E-03  0.281592071       2.51334161E-04
  0.343434334      0.300000012      0.922834098      0.893879056      0.324547142      -1.69688580E-03  0.278703332       2.43283808E-04
  0.333333343      0.300000012      0.924079359      0.895560980      0.321268618      -1.72906287E-03  0.275814861       2.35315412E-04
  0.323232323      0.300000012      0.925312221      0.897226751      0.318008155      -1.75955042E-03  0.272944272       2.27041543E-04
  0.313131303      0.300000012      0.926526546      0.898867846      0.314785302      -1.78772816E-03  0.270108610       2.18357891E-04
  0.303030312      0.300000012      0.927717924      0.900478303      0.311618507      -1.81277492E-03  0.267324001       2.09365040E-04
  0.292929292      0.300000012      0.928883851      0.902055204      0.308524042      -1.83369953E-03  0.264604270       2.00625509E-04
  0.282828271      0.300000012      0.930024803      0.903598428      0.305515349      -1.84973096E-03  0.261960924       1.91360712E-04
  0.272727281      0.300000012      0.931142747      0.905111849      0.302602768      -1.85991172E-03  0.259402454       1.82967633E-04
  0.262626261      0.300000012      0.932243049      0.906602442      0.299792677      -1.86344469E-03  0.256933957       1.75159425E-04
  0.252525240      0.300000012      0.933333457      0.908080518      0.297087789      -1.85972638E-03  0.254557282       1.67638063E-04
  0.242424250      0.300000012      0.934423625      0.909559309      0.294486314      -1.84803572E-03  0.252270252       1.60481781E-04
  0.232323229      0.300000012      0.935525239      0.911054432      0.291982472      -1.82803720E-03  0.250067294       1.53340399E-04
  0.222222224      0.300000012      0.936651409      0.912583768      0.289566755      -1.79970940E-03  0.247939512       1.46370381E-04
  0.212121218      0.300000012      0.937815726      0.914166391      0.287227005      -1.76316290E-03  0.245875686       1.39832497E-04
  0.202020198      0.300000012      0.939033091      0.915821850      0.284948498      -1.71882915E-03  0.243862614       1.32977962E-04
  0.191919193      0.300000012      0.940317690      0.917569876      0.282715976      -1.66742119E-03  0.241886497       1.25955790E-04
  0.181818187      0.300000012      0.941682994      0.919428766      0.280514002      -1.60970120E-03  0.239933565       1.18501484E-04
  0.171717167      0.300000012      0.943140924      0.921415091      0.278328747      -1.54684263E-03  0.237991467       1.10700727E-04
  0.161616161      0.300000012      0.944701493      0.923542142      0.276148736      -1.47966936E-03  0.236050114       1.01923943E-04
  0.151515156      0.300000012      0.946371973      0.925819993      0.273965806      -1.40893564E-03  0.234102309       9.19606537E-05
  0.141414136      0.300000012      0.948155940      0.928254664      0.271775097      -1.33502972E-03  0.232143849       8.16173851E-05
  0.131313130      0.300000012      0.950053692      0.930847108      0.269574791      -1.25756965E-03  0.230173275       7.12890178E-05
  0.121212125      0.300000012      0.952061832      0.933593333      0.267364770      -1.17542699E-03  0.228190765       6.10370189E-05
  0.111111112      0.300000012      0.954172909      0.936484456      0.265146852      -1.08715822E-03  0.226198316       5.21671027E-05
  0.101010099      0.300000012      0.956375539      0.939505696      0.262923509      -9.91115347E-04  0.224198669       4.50853258E-05
   9.09090936E-02  0.300000012      0.958654881      0.942636788      0.260700047      -8.86321708E-04  0.222197175       3.95830721E-05
   8.08080807E-02  0.300000012      0.960992038      0.945851445      0.258486897      -7.73249019E-04  0.220203847       3.50493938E-05
   7.07070678E-02  0.300000012      0.963363588      0.949117601      0.256302774      -6.53747062E-04  0.218235716       3.15997750E-05
   6.06060624E-02  0.300000012      0.965742409      0.952397406      0.254177302      -5.31125232E-04  0.216319293       2.85096467E-05
   5.05050495E-02  0.300000012      0.968097150      0.955647111      0.252152830      -4.09627886E-04  0.214492008       2.54344195E-05
   4.04040404E-02  0.300000012      0.970392525      0.958817780      0.250285417      -2.94559373E-04  0.212802887       2.22362578E-05
   3.03030312E-02  0.300000012      0.972590744      0.961855650      0.248646632      -1.93025830E-04  0.211314261       1.77351758E-05
   2.02020202E-02  0.300000012      0.974651039      0.964703143      0.247323871      -1.12106260E-04  0.210101798       1.12215057E-05
   1.01010101E-02  0.300000012      0.976531267      0.967303336      0.246406123      -5.17096087E-05  0.209242165       4.74508852E-06
   0.00000000      0.289655179      0.977868736      0.969155073      0.246113107      -4.96279215E-04  0.208936945       1.08964741E-06
   0.00000000      0.279310346      0.977824509      0.969093919      0.246571690      -9.10992210E-04  0.209329143       1.32434070E-06
   0.00000000      0.268965513      0.977701426      0.968923211      0.247539297      -1.27187627E-03  0.210157230       1.40070915E-06
   0.00000000      0.258620679      0.977507174      0.968653798      0.248963594      -1.59793964E-03  0.211376384       1.48545951E-06
   0.00000000      0.248275861      0.977243423      0.968288064      0.250814259      -1.89069659E-03  0.212960795       1.63074583E-06
   0.00000000      0.237931028      0.976909816      0.967825353      0.253063440      -2.14690738E-03  0.214886829       1.71829015E-06
   0.00000000      0.227586210      0.976505578      0.967264771      0.255678147      -2.36070063E-03  0.217126474       1.73691660E-06
   0.00000000      0.217241377      0.976031363      0.966607392      0.258616328      -2.52604857E-03  0.219644070       1.88499689E-06
   0.00000000      0.206896558      0.975489795      0.965856612      0.261824816      -2.63765245E-03  0.222394407       1.90548599E-06
   0.00000000      0.196551725      0.974886477      0.965020418      0.265239179      -2.69167637E-03  0.225322604       1.92876905E-06
   0.00000000      0.186206892      0.974230111      0.964111090      0.268785924      -2.68713268E-03  0.228366017       2.06753612E-06
   0.00000000      0.175862074      0.973533392      0.963145852      0.272384584      -2.62586959E-03  0.231455803       1.97812915E-06
   0.00000000      0.165517241      0.972811520      0.962146521      0.275953948      -2.51339120E-03  0.234522402       2.34320760E-06
   0.00000000      0.155172408      0.972082138      0.961136758      0.279416472      -2.35793297E-03  0.237499312       2.38046050E-06
   0.00000000      0.144827589      0.971363306      0.960141957      0.282704204      -2.17005843E-03  0.240327895       2.49408185E-06
   0.00000000      0.134482756      0.970671654      0.959185064      0.285763472      -1.96156162E-03  0.242961764       2.55554914E-06
   0.00000000      0.124137931      0.970021248      0.958285570      0.288556635      -1.74365053E-03  0.245368108       2.76789069E-06
   0.00000000      0.113793105      0.969422877      0.957458258      0.291063368      -1.52621756E-03  0.247529075       2.98023224E-06
   0.00000000      0.103448279      0.968883216      0.956712306      0.293278307      -1.31736021E-03  0.249439552       3.11061740E-06
   0.00000000       9.31034461E-02  0.968404830      0.956051409      0.295208842      -1.12242112E-03  0.251105547       3.49618495E-06
   0.00000000       8.27586204E-02  0.967987597      0.955475092      0.296871543      -9.44238505E-04  0.252541065       3.85940075E-06
   0.00000000       7.24137947E-02  0.967629254      0.954980195      0.298288196      -7.83705211E-04  0.253764480       4.13134694E-06
   0.00000000       6.20689653E-02  0.967325628      0.954560816      0.299483180      -6.39902893E-04  0.254796773       4.20399010E-06
   0.00000000       5.17241396E-02  0.967071593      0.954210103      0.300481588      -5.09943231E-04  0.255659401       4.46848571E-06
   0.00000000       4.13793102E-02  0.966862500      0.953921378      0.301307052      -3.88406246E-04  0.256372660       4.57838178E-06
   0.00000000       3.10344826E-02  0.966693819      0.953688443      0.301981002      -2.65636510E-04  0.256954968       4.57279384E-06
   0.00000000       2.06896551E-02  0.966562092      0.953506768      0.302522421      -1.23811900E-04  0.257422537       4.90620732E-06
   0.00000000       1.03448275E-02  0.966465533      0.953373492      0.302947938       7.25939099E-05  0.257789731       4.98816371E-06
   1.01942774E-02  -1.06002917E-05  0.965398371      0.951903880      0.303712875      -2.79247924E-05  0.258497268       8.96677375E-06
   2.03885511E-02  -4.05888240E-05  0.962372124      0.947738886      0.305436999      -5.55890845E-04  0.260127038       1.94627792E-05
   3.05827484E-02  -8.74972393E-05  0.959548056      0.943857133      0.306805283      -1.09355350E-03  0.261445910       2.95583159E-05
   4.07768898E-02  -1.49138228E-04  0.956917107      0.940245211      0.307879239      -1.60304131E-03  0.262505770       3.93502414E-05
   5.09709269E-02  -2.23550553E-04  0.954478920      0.936902821      0.308697402      -2.07938207E-03  0.263338715       4.99226153E-05
   6.11648858E-02  -3.08956922E-04  0.952233970      0.933832109      0.309289217      -2.52227252E-03  0.263968825       6.36652112E-05
   7.13587478E-02  -4.03728453E-04  0.950181782      0.931032240      0.309680611      -2.93197506E-03  0.264417678       8.13379884E-05
   8.15525427E-02  -5.06357115E-04  0.948321879      0.928499639      0.309893966      -3.30786314E-03  0.264704227       1.00510195E-04
   9.17462707E-02  -6.15430705E-04  0.946651638      0.926227152      0.309946030      -3.64750694E-03  0.264842987       1.17976218E-04
  0.101939946      -7.29613879E-04  0.945165396      0.924203992      0.309846133      -3.94824380E-03  0.264842272       1.30992383E-04
  0.112133577      -8.47629446E-04  0.943853855      0.922416627      0.309597999      -4.20803158E-03  0.264705569       1.39191747E-04
  0.122327171      -9.68243345E-04  0.942704856      0.920849264      0.309204906      -4.42689005E-03  0.264435917       1.43885612E-04
  0.132520750      -1.09024998E-03  0.941706181      0.919486284      0.308673412      -4.60628513E-03  0.264039338       1.46631151E-04
  0.142714337      -1.21245917E-03  0.940845549      0.918311656      0.308016330      -4.74868715E-03  0.263527185       1.48329884E-04
  0.152907923      -1.33368257E-03  0.940111458      0.917309999      0.307252288      -4.85601882E-03  0.262915939       1.49723142E-04
  0.163101539      -1.45272142E-03  0.939493477      0.916467309      0.306404233      -4.92905173E-03  0.262225747       1.51276588E-04
  0.173295200      -1.56835280E-03  0.938982010      0.915770650      0.305495858      -4.96707112E-03  0.261477262       1.53202564E-04
  0.183488905      -1.67931605E-03  0.938568592      0.915208876      0.304549843      -4.96808626E-03  0.260690421       1.56152993E-04
  0.193682685      -1.78429752E-03  0.938246429      0.914772272      0.303585917      -4.92895534E-03  0.259882361       1.59591436E-04
  0.203876525      -1.88191328E-03  0.938010216      0.914453804      0.302619368      -4.84553119E-03  0.259066492       1.63894147E-04
  0.214070454      -1.97069068E-03  0.937856495      0.914249003      0.301660359      -4.71314928E-03  0.258251697       1.69344246E-04
  0.224264458      -2.04904471E-03  0.937784374      0.914156020      0.300713569      -4.52629849E-03  0.257442057       1.75274909E-04
  0.234458551      -2.11525219E-03  0.937795579      0.914176881      0.299777597      -4.27890196E-03  0.256636441       1.81384385E-04
  0.244652733      -2.16741930E-03  0.937894523      0.914318025      0.298844397      -3.96400690E-03  0.255827755       1.88112259E-04
  0.254846990      -2.20344099E-03  0.938089073      0.914589167      0.297899067      -3.57378763E-03  0.255003035       1.94221735E-04
  0.265041292      -2.22095218E-03  0.938389778      0.915005505      0.296919882      -3.09932954E-03  0.254143357       2.00632960E-04
  0.275235593      -2.21726228E-03  0.938811123      0.915586710      0.295878291      -2.53032823E-03  0.253223717       2.07114965E-04
  0.285429865      -2.18927371E-03  0.939370692      0.916356206      0.294739306      -1.85462739E-03  0.252213895       2.13034451E-04
  0.295624018      -2.13337177E-03  0.940088093      0.917341471      0.293461978      -1.05694088E-03  0.251078427       2.18868256E-04
  0.305817962      -2.04527588E-03  0.940984488      0.918571413      0.292000026      -1.18554446E-04  0.249777704       2.24474818E-04
  0.316011488      -1.91983546E-03  0.942080915      0.920075238      0.290302575       9.85512394E-04  0.248268589       2.29924917E-04
  0.326204360      -1.75073801E-03  0.943397045      0.921880484      0.288314164       2.28788867E-03  0.246504933       2.35561281E-04
  0.336396307      -1.53008103E-03  0.944948852      0.924009740      0.285975367       3.83321708E-03  0.244438440       2.41614878E-04
  0.346586645      -1.24772848E-03  0.946746349      0.926477373      0.283222437       5.68441162E-03  0.242019579       2.48029828E-04
  0.356774658      -8.90274358E-04  0.948790610      0.929286122      0.279988110       7.93287437E-03  0.239199519       2.55385414E-04
  0.366958946      -4.39326104E-04  0.951071560      0.932423353      0.276201308       1.07356915E-02  0.235933468       2.63994560E-04
  0.377137065       1.33766516E-04  0.953577042      0.935875952      0.271824598       1.48147410E-02  0.232240304       2.76708975E-04
  0.387299746       9.32033930E-04  0.956161439      0.939446986      0.267479151       2.09398437E-02  0.228761077       2.96017155E-04
  0.397434235       2.03104783E-03  0.958581626      0.942802668      0.263851672       2.87209358E-02  0.226181880       3.22530046E-04
  0.407523632       3.48527054E-03  0.960709810      0.945767820      0.261268288       3.80521081E-02  0.224897429       3.57884914E-04
  0.417543113       5.36030158E-03  0.962412655      0.948163748      0.260170639       4.93404642E-02  0.225478932       4.08727676E-04
  0.427456856       7.73026003E-03  0.963454545      0.949678063      0.261442959       6.31553978E-02  0.228957921       4.89739701E-04
  0.437217921       1.06651187E-02  0.963440239      0.949791253      0.266690373       8.00314248E-02  0.237009510       6.29656017E-04
  0.446780443       1.41935814E-02  0.961704791      0.947628558      0.278670788       9.97354612E-02  0.252000391       8.74165446E-04
  0.456144422       1.82216074E-02  0.957264841      0.941874921      0.301357627      0.119217008      0.276127905       1.26245059E-03
  0.465438336       2.24102195E-02  0.949350297      0.931464791      0.337367684      0.129643336      0.308374226       1.77153014E-03
  0.474928796       2.61229333E-02  0.939240932      0.918082297      0.380683750      0.118525892      0.340831071       2.28827819E-03
  0.484786808       2.86871437E-02  0.930981457      0.907193303      0.415542066       8.27231407E-02  0.362752974       2.72257999E-03
  0.494905144       2.98680626E-02  0.927803218      0.903244913      0.430935621       3.59443687E-02  0.370406896       3.14834341E-03
  0.505094886       2.98680626E-02  0.929000318      0.905349493      0.429072171      -9.61466506E-03  0.367430449       3.67047638E-03
  0.515213192       2.86871418E-02  0.932207108      0.910492659      0.413480699      -5.56653701E-02  0.356787473       4.51089814E-03
  0.525071204       2.61229314E-02  0.937235653      0.918501794      0.383903056      -9.89450589E-02  0.338460147       5.73732145E-03
  0.534561634       2.24102195E-02  0.945243359      0.930679440      0.345486999     -0.124504343      0.312790453       6.99765980E-03
  0.543855608       1.82216056E-02  0.955458462      0.945713341      0.308318347     -0.124786973      0.282554686       7.97379296E-03
  0.553219557       1.41935805E-02  0.964939117      0.959553540      0.279570609     -0.108215138      0.254073471       8.67921486E-03
  0.562782109       1.06651178E-02  0.971667767      0.969445765      0.261037052      -8.75865594E-02  0.232970729       9.20712296E-03
  0.572543144       7.73025956E-03  0.975763500      0.975535214      0.250975192      -6.94047883E-02  0.220099717       9.58004221E-03
  0.582456887       5.36030112E-03  0.978106439      0.978988230      0.246720403      -5.47813438E-02  0.213498771       9.75590572E-03
  0.592476368       3.48527008E-03  0.979384899      0.980733931      0.246105418      -4.30608615E-02  0.211011603       9.70875286E-03