 title = "grid"
                                   variables = "x","y","rho","P","u","v","M","S"
 zone n=        3000  e =        5742  et=quadrilateral, f=fepoint
   0.00000000       0.00000000      0.966865003      0.953920901      0.303757817       4.63382930E-05  0.258458108       4.63798642E-07
   1.00000000       0.00000000      0.944858789      0.931529343      0.268392473       8.15179199E-04  0.228451237       8.48011300E-03
   1.00000000      0.300000012      0.949945211      0.931728423      0.358920604      -9.52650662E-05  0.306294352       1.17747113E-03
   0.00000000      0.300000012      0.959282756      0.943465471      0.336854637       2.83056201E-04  0.287070751       1.62981451E-06
   1.00000000       1.03448275E-02  0.945615709      0.931637824      0.273606151       1.80984742E-03  0.232972756       7.47549534E-03
   1.00000000       2.06896551E-02  0.946512282      0.931685090      0.280862540       2.92960973E-03  0.239266545       6.19949400E-03
   1.00000000       3.10344826E-02  0.947210968      0.931733370      0.287136108       3.89005826E-03  0.244704068       5.21819852E-03
   1.00000000       4.13793102E-02  0.947764337      0.931784749      0.292739123       4.71138256E-03  0.249554485       4.45569307E-03
   1.00000000       5.17241396E-02  0.948207438      0.931839585      0.297837824       5.40630007E-03  0.253961861       3.86021845E-03
   1.00000000       6.20689653E-02  0.948565066      0.931896985      0.302530259       5.98311424E-03  0.258011669       3.39387916E-03
   1.00000000       7.24137947E-02  0.948854923      0.931955278      0.306881279       6.44793222E-03  0.261760801       3.02863866E-03
   1.00000000       8.27586204E-02  0.949090302      0.932011366      0.310938835       6.80639548E-03  0.265251666       2.74159200E-03
   1.00000000       9.31034461E-02  0.949281693      0.932062864      0.314739823       7.06460141E-03  0.268517137       2.51451135E-03
   1.00000000      0.103448279      0.949436188      0.932106733      0.318314046       7.22926296E-03  0.271583796       2.33377516E-03
   1.00000000      0.113793105      0.949559033      0.932139695      0.321685672       7.30783492E-03  0.274473369       2.18804553E-03
   1.00000000      0.124137931      0.949654758      0.932159960      0.324873149       7.30836065E-03  0.277202636       2.06867047E-03
   1.00000000      0.134482756      0.949726045      0.932165682      0.327891409       7.23906001E-03  0.279785037       1.96971931E-03
   1.00000000      0.144827589      0.949776471      0.932155907      0.330750853       7.10806623E-03  0.282230318       1.88490003E-03
   1.00000000      0.155172408      0.949808180      0.932131231      0.333459556       6.92281453E-03  0.284545779       1.81165151E-03
   1.00000000      0.165517241      0.949824274      0.932092607      0.336023629       6.68989168E-03  0.286737114       1.74650922E-03
   1.00000000      0.175862074      0.949827731      0.932042062      0.338448614       6.41416665E-03  0.288809419       1.68716349E-03
   1.00000000      0.186206892      0.949821234      0.931982338      0.340739906       6.09918311E-03  0.290767342       1.63268670E-03
   1.00000000      0.196551725      0.949808180      0.931916654      0.342903763       5.74704586E-03  0.292616367       1.58144347E-03
   1.00000000      0.206896558      0.949791849      0.931848109      0.344947517       5.35808457E-03  0.294362873       1.53193995E-03
   1.00000000      0.217241377      0.949775457      0.931779981      0.346880347       4.93096700E-03  0.296014756       1.48301944E-03
   1.00000000      0.227586210      0.949761212      0.931715429      0.348713219       4.46297508E-03  0.297581196       1.43468939E-03
   1.00000000      0.237931028      0.949751556      0.931656957      0.350458175       3.94979445E-03  0.299072683       1.38620846E-03
   1.00000000      0.248275861      0.949748516      0.931607068      0.352127761       3.38552077E-03  0.300499856       1.33710727E-03
   1.00000000      0.258620679      0.949752629      0.931567729      0.353733361       2.76266015E-03  0.301872313       1.28883123E-03
   1.00000000      0.268965513      0.949763298      0.931540549      0.355283290       2.07154150E-03  0.303197056       1.24392472E-03
   1.00000000      0.279310346      0.949779332      0.931527555      0.356781036       1.29983702E-03  0.304476738       1.20637007E-03
   1.00000000      0.289655179      0.949798822      0.931530237      0.358231097       4.31256572E-04  0.305715084       1.18046068E-03
  0.989898980      0.300000012      0.949346364      0.930894613      0.358532935       1.14374983E-04  0.306004047       1.16502866E-03
  0.979797959      0.300000012      0.947997272      0.929020166      0.357919902       8.55516555E-05  0.305571496       1.14028342E-03
  0.969696999      0.300000012      0.946716547      0.927240908      0.357194960       5.07931982E-05  0.305038720       1.11590512E-03
  0.959595978      0.300000012      0.945501089      0.925552309      0.356361985       9.39531401E-06  0.304409266       1.09173357E-03
  0.949494958      0.300000012      0.944353282      0.923957765      0.355420947      -3.87190994E-05  0.303682804       1.06801838E-03
  0.939393938      0.300000012      0.943281591      0.922468960      0.354367524      -9.32812472E-05  0.302854985       1.04502216E-03
  0.929292917      0.300000012      0.942299068      0.921103537      0.353194475      -1.53538218E-04  0.301918745       1.02277100E-03
  0.919191897      0.300000012      0.941420972      0.919881880      0.351892292      -2.18574802E-04  0.300865024       1.00078434E-03
  0.909090936      0.300000012      0.940663159      0.918824971      0.350451678      -2.87397415E-04  0.299684972       9.78633761E-04
  0.898989916      0.300000012      0.940039933      0.917953253      0.348865241      -3.59034224E-04  0.298371106       9.57239419E-04
  0.888888896      0.300000012      0.939563274      0.917282164      0.347128719      -4.32132307E-04  0.296919286       9.36042517E-04
  0.878787875      0.300000012      0.939241469      0.916823447      0.345241696      -5.05535107E-04  0.295328557       9.15411860E-04
  0.868686855      0.300000012      0.939078987      0.916582823      0.343208224      -5.78086823E-04  0.293602318       8.95079225E-04
  0.858585835      0.300000012      0.939076185      0.916560948      0.341036618      -6.48580201E-04  0.291747749       8.75383615E-04
  0.848484874      0.300000012      0.939230204      0.916753113      0.338739425      -7.15906441E-04  0.289776087       8.55479389E-04
  0.838383853      0.300000012      0.939533889      0.917150319      0.336332500      -7.79129041E-04  0.287701398       8.36085528E-04
  0.828282833      0.300000012      0.939977646      0.917739511      0.333834946      -8.37394269E-04  0.285540819       8.17164779E-04
  0.818181813      0.300000012      0.940549850      0.918504655      0.331268340      -8.89892399E-04  0.283313781       7.98560679E-04
  0.808080792      0.300000012      0.941236496      0.919426858      0.328656375      -9.36034601E-04  0.281041592       7.80422240E-04
  0.797979772      0.300000012      0.942023218      0.920485616      0.326023966      -9.75144678E-04  0.278746724       7.61568546E-04
  0.787878811      0.300000012      0.942893803      0.921659291      0.323397487      -1.00702944E-03  0.276452750       7.42569566E-04
  0.777777791      0.300000012      0.943831623      0.922925234      0.320803851      -1.03124464E-03  0.274183810       7.23402947E-04
  0.767676771      0.300000012      0.944819689      0.924260378      0.318271101      -1.04753021E-03  0.271964878       7.04174861E-04
  0.757575750      0.300000012      0.945841014      0.925640643      0.315827549      -1.05593575E-03  0.269821316       6.83886930E-04
  0.747474730      0.300000012      0.946877480      0.927042544      0.313502699      -1.05651550E-03  0.267779171       6.63945451E-04
  0.737373710      0.300000012      0.947911739      0.928441584      0.311325908      -1.04922603E-03  0.265864521       6.43610954E-04
  0.727272749      0.300000012      0.948926508      0.929814577      0.309326589      -1.03426760E-03  0.264103293       6.23388216E-04
  0.717171729      0.300000012      0.949904680      0.931137800      0.307533860      -1.01186649E-03  0.262521178       6.03055581E-04
  0.707070708      0.300000012      0.950830460      0.932389677      0.305975556      -9.82099329E-04  0.261142612       5.82862645E-04
  0.696969688      0.300000012      0.951689422      0.933550954      0.304677039      -9.45000036E-04  0.259989858       5.63399866E-04
  0.686868668      0.300000012      0.952469647      0.934605241      0.303659379      -9.00489627E-04  0.259081304       5.44851646E-04
  0.676767647      0.300000012      0.953162909      0.935540915      0.302938610      -8.48324213E-04  0.258430928       5.26804477E-04
  0.666666687      0.300000012      0.953764498      0.936351895      0.302522987      -7.87813449E-04  0.258045852       5.09954989E-04
  0.656565666      0.300000012      0.954274833      0.937038839      0.302411944      -7.18352327E-04  0.257925421       4.94439155E-04
  0.646464646      0.300000012      0.954699516      0.937609017      0.302594960      -6.38895261E-04  0.258060247       4.79869545E-04
  0.636363626      0.300000012      0.955048800      0.938076437      0.303050876      -5.48401673E-04  0.258431792       4.66153026E-04
  0.626262605      0.300000012      0.955336392      0.938460112      0.303748995      -4.45993617E-04  0.259012997       4.53546643E-04
  0.616161644      0.300000012      0.955579102      0.938783228      0.304650545      -3.31169402E-04  0.259769917       4.42156568E-04
  0.606060624      0.300000012      0.955794036      0.939069033      0.305712432      -2.04023803E-04  0.260664880       4.31666151E-04
  0.595959604      0.300000012      0.955997288      0.939339578      0.306889474      -6.51961673E-05  0.261658579       4.22092155E-04
  0.585858583      0.300000012      0.956201553      0.939612329      0.308138132       8.36537874E-05  0.262713194       4.13309783E-04
  0.575757563      0.300000012      0.956414402      0.939897180      0.309419960       2.40291120E-04  0.263795495       4.04749066E-04
  0.565656543      0.300000012      0.956638277      0.940197706      0.310704261       4.01339727E-04  0.264879197       3.96845862E-04
  0.555555582      0.300000012      0.956868947      0.940508008      0.311971098       5.62406087E-04  0.265947580       3.89235094E-04
  0.545454562      0.300000012      0.957097590      0.940815568      0.313212931       7.18541152E-04  0.266994685       3.81717458E-04
  0.535353541      0.300000012      0.957310021      0.941100895      0.314434975       8.65651527E-04  0.268025845       3.74257565E-04
  0.525252521      0.300000012      0.957489789      0.941341639      0.315652728       1.00254756E-03  0.269055068       3.67183238E-04
  0.515151501      0.300000012      0.957621515      0.941516519      0.316882163       1.13353576E-03  0.270096868       3.60356644E-04
  0.505050480      0.300000012      0.957692921      0.941608369      0.318130821       1.26554910E-03  0.271158427       3.53502110E-04
  0.494949490      0.300000012      0.957694948      0.941605210      0.319398165       1.40194141E-03  0.272239864       3.47204506E-04
  0.484848499      0.300000012      0.957620084      0.941496491      0.320684463       1.54166913E-03  0.273341894       3.41195613E-04
  0.474747479      0.300000012      0.957464874      0.941277742      0.321988612       1.68780715E-03  0.274463743       3.35684046E-04
  0.464646459      0.300000012      0.957231700      0.940951407      0.323296636       1.84694561E-03  0.275593638       3.29911709E-04
  0.454545468      0.300000012      0.956925213      0.940524161      0.324584633       2.01880629E-03  0.276710927       3.24124470E-04
  0.444444448      0.300000012      0.956549823      0.940002084      0.325833857       2.19474593E-03  0.277799487       3.18158418E-04
  0.434343427      0.300000012      0.956108868      0.939389467      0.327038765       2.36461335E-03  0.278854311       3.11762094E-04
  0.424242437      0.300000012      0.955604792      0.938689470      0.328203738       2.52161757E-03  0.279879123       3.04656103E-04
  0.414141417      0.300000012      0.955040157      0.937905848      0.329337537       2.66273902E-03  0.280881166       2.96924263E-04
  0.404040396      0.300000012      0.954417229      0.937041819      0.330450028       2.78675323E-03  0.281868696       2.88687646E-04
  0.393939406      0.300000012      0.953737795      0.936100125      0.331550598       2.89322343E-03  0.282849669       2.80208886E-04
  0.383838385      0.300000012      0.953003168      0.935082734      0.332648069       2.98180548E-03  0.283831507       2.71571800E-04
  0.373737365      0.300000012      0.952213824      0.933989823      0.333751053       3.05211334E-03  0.284821600       2.62169167E-04
  0.363636374      0.300000012      0.951369762      0.932821989      0.334868103       3.10386112E-03  0.285827309       2.52598897E-04
  0.353535354      0.300000012      0.950471342      0.931580126      0.336006999       3.13757663E-03  0.286855131       2.43077055E-04
  0.343434334      0.300000012      0.949520171      0.930266500      0.337172240       3.15452623E-03  0.287908971       2.33735889E-04
  0.333333343      0.300000012      0.948519647      0.928885877      0.338365287       3.15498421E-03  0.288989902       2.24491581E-04
  0.323232323      0.300000012      0.947474957      0.927445710      0.339584827       3.13921901E-03  0.290096462       2.15638429E-04
  0.313131303      0.300000012      0.946394980      0.925957918      0.340825886       3.10779549E-03  0.291224033       2.06885859E-04
  0.303030312      0.300000012      0.945291460      0.924438596      0.342079997       3.06150760E-03  0.292364687       1.98086724E-04
  0.292929292      0.300000012      0.944179595      0.922908902      0.343334407       3.00155114E-03  0.293506563       1.89680606E-04
  0.282828271      0.300000012      0.943078220      0.921393991      0.344572902       2.92907236E-03  0.294634759       1.80929899E-04
  0.272727281      0.300000012      0.942008495      0.919922948      0.345776677       2.84539140E-03  0.295731813       1.71985477E-04
  0.262626261      0.300000012      0.940993309      0.918526888      0.346924901       2.75199837E-03  0.296778500       1.62824988E-04
  0.252525240      0.300000012      0.940056264      0.917237997      0.347996473       2.65030703E-03  0.297755182       1.53500587E-04
  0.242424250      0.300000012      0.939220428      0.916087270      0.348971128       2.54185940E-03  0.298643023       1.43434852E-04
  0.232323229      0.300000012      0.938506782      0.915103734      0.349830598       2.42803316E-03  0.299424797       1.33387744E-04
  0.222222224      0.300000012      0.937933624      0.914312482      0.350559473       2.31041131E-03  0.300086081       1.23683363E-04
  0.212121218      0.300000012      0.937516034      0.913733423      0.351145416       2.19042273E-03  0.300615281       1.13587826E-04
  0.202020198      0.300000012      0.937264502      0.913381338      0.351579726       2.06972356E-03  0.301004052       1.03864819E-04
  0.191919193      0.300000012      0.937185049      0.913265288      0.351856500       1.94988376E-03  0.301246762       9.54307616E-05
  0.181818187      0.300000012      0.937280476      0.913388789      0.351972342       1.83236657E-03  0.301340401       8.80993903E-05
  0.171717167      0.300000012      0.937549293      0.913749993      0.351926714       1.71842519E-03  0.301284462       8.20159912E-05
  0.161616161      0.300000012      0.937987030      0.914342940      0.351720989       1.60885858E-03  0.301080525       7.72289932E-05
  0.151515156      0.300000012      0.938586712      0.915157437      0.351359665       1.50398619E-03  0.300733060       7.28592277E-05
  0.141414136      0.300000012      0.939338744      0.916180909      0.350850344       1.40354619E-03  0.300249219       6.93574548E-05
  0.131313130      0.300000012      0.940232217      0.917398095      0.350204259       1.30662450E-03  0.299639523       6.59860671E-05
  0.121212125      0.300000012      0.941255271      0.918792784      0.349437207       1.21201167E-03  0.298918396       6.26035035E-05
  0.111111112      0.300000012      0.942395508      0.920347333      0.348569334       1.11804006E-03  0.298104227       5.81629574E-05
  0.101010099      0.300000012      0.943640411      0.922045469      0.347624153       1.02362293E-03  0.297217876       5.33871353E-05
   9.09090936E-02  0.300000012      0.944977760      0.923870623      0.346626639       9.28563473E-04  0.296281606       4.81978059E-05
   8.08080807E-02  0.300000012      0.946396589      0.925808191      0.345598012       8.34677543E-04  0.295314342       4.28091735E-05
   7.07070678E-02  0.300000012      0.947887361      0.927845597      0.344551027       7.45546422E-04  0.294327646       3.74950469E-05
   6.06060624E-02  0.300000012      0.949443042      0.929972768      0.343486905       6.65610190E-04  0.293323129       3.16705555E-05
   5.05050495E-02  0.300000012      0.951057434      0.932181478      0.342396408       5.97617705E-04  0.292293400       2.53934413E-05
   4.04040404E-02  0.300000012      0.952725112      0.934464872      0.341268003       5.40523557E-04  0.291228831       1.91275030E-05
   3.03030312E-02  0.300000012      0.954440892      0.936816335      0.340097100       4.89364204E-04  0.290125996       1.33980066E-05
   2.02020202E-02  0.300000012      0.956199348      0.939229071      0.338894129       4.36595903E-04  0.288994044       8.52346420E-06
   1.01010101E-02  0.300000012      0.957988679      0.941686571      0.337692589       3.69652524E-04  0.287862301       4.26918268E-06
   0.00000000      0.289655179      0.959411681      0.943642855      0.336642593       3.07764392E-04  0.286882401       1.51805580E-06
   0.00000000      0.279310346      0.959493458      0.943755448      0.336336941       3.86600877E-04  0.286617100       1.47707760E-06
   0.00000000      0.268965513      0.959607899      0.943913043      0.335918248       4.78775939E-04  0.286253601       1.45286322E-06
   0.00000000      0.258620679      0.959757566      0.944119036      0.335373819       5.78342995E-04  0.285780907       1.37463212E-06
   0.00000000      0.248275861      0.959943295      0.944374800      0.334695756       6.84156490E-04  0.285192251       1.35041773E-06
   0.00000000      0.237931028      0.960165799      0.944680989      0.333877951       7.95385742E-04  0.284482449       1.02818012E-06
   0.00000000      0.227586210      0.960424721      0.945037901      0.332914978       9.11269221E-04  0.283646882       1.32061541E-06
   0.00000000      0.217241377      0.960719764      0.945444047      0.331803024       1.03005406E-03  0.282682449       1.00024045E-06
   0.00000000      0.206896558      0.961049080      0.945897818      0.330540955       1.14920072E-03  0.281588286       1.02631748E-06
   0.00000000      0.196551725      0.961410046      0.946395338      0.329131514       1.26535341E-03  0.280366898       1.10827386E-06
   0.00000000      0.186206892      0.961798668      0.946930826      0.327581972       1.37448928E-03  0.279024780       9.90927219E-07
   0.00000000      0.175862074      0.962209642      0.947497308      0.325905144       1.47202937E-03  0.277573198       9.36910510E-07
   0.00000000      0.165517241      0.962636232      0.948085546      0.324119270       1.55322102E-03  0.276028037       1.03563070E-06
   0.00000000      0.155172408      0.963071525      0.948685706      0.322248280       1.61348493E-03  0.274410129       8.81031156E-07
   0.00000000      0.144827589      0.963507235      0.949286699      0.320320934       1.64875051E-03  0.272744417       9.94652510E-07
   0.00000000      0.134482756      0.963935673      0.949877679      0.318369657       1.65573379E-03  0.271058947       9.53674316E-07
   0.00000000      0.124137931      0.964348853      0.950447679      0.316429347       1.63249637E-03  0.269383848       8.75443220E-07
   0.00000000      0.113793105      0.964739859      0.950987279      0.314535469       1.57814636E-03  0.267749608       9.07108188E-07
   0.00000000      0.103448279      0.965102851      0.951488078      0.312722832       1.49307994E-03  0.266186267       7.48783350E-07
   0.00000000       9.31034461E-02  0.965432644      0.951943457      0.311023384       1.37895707E-03  0.264721155       8.84756446E-07
   0.00000000       8.27586204E-02  0.965725839      0.952347994      0.309465706       1.23862538E-03  0.263378948       6.07222319E-07
   0.00000000       7.24137947E-02  0.965979874      0.952698827      0.308074117       1.07569434E-03  0.262180299       7.63684511E-07
   0.00000000       6.20689653E-02  0.966193676      0.952993989      0.306867540       8.94795521E-04  0.261141449       7.18981028E-07
   0.00000000       5.17241396E-02  0.966366768      0.953233063      0.305860728       7.01720186E-04  0.260274887       7.20843673E-07
   0.00000000       4.13793102E-02  0.966499865      0.953416884      0.305063307       5.04118390E-04  0.259588838       7.41332769E-07
   0.00000000       3.10344826E-02  0.966594219      0.953547299      0.304480076       3.13533150E-04  0.259087235       8.45640898E-07
   0.00000000       2.06896551E-02  0.966652632      0.953628123      0.304111093       1.49031461E-04  0.258770049       1.03004277E-06
   0.00000000       1.03448275E-02  0.966679156      0.953664601      0.303952247       4.63062570E-05  0.258633435       8.71717930E-07
   1.01942774E-02  -1.06002917E-05  0.966038048      0.952779830      0.304283768      -1.17071002E-04  0.258949846       1.44541264E-06
   2.03885511E-02  -4.05888240E-05  0.964088917      0.950090945      0.305341631      -5.17436536E-04  0.259955257       2.86102295E-06
   3.05827484E-02  -8.74972393E-05  0.962115586      0.947371066      0.306341559      -9.07933631E-04  0.260913998       4.48897481E-06
   4.07768898E-02  -1.49138228E-04  0.960135758      0.944645047      0.307291001      -1.25560758E-03  0.261831224       6.75022602E-06
   5.09709269E-02  -2.23550553E-04  0.958170235      0.941941321      0.308166832      -1.55210181E-03  0.262685925       9.48458910E-06
   6.11648858E-02  -3.08956922E-04  0.956237972      0.939286172      0.308935761      -1.79658947E-03  0.263448358       1.27535313E-05
   7.13587478E-02  -4.03728453E-04  0.954355538      0.936703026      0.309568316      -1.99254975E-03  0.264092237       1.75703317E-05
   8.15525427E-02  -5.06357115E-04  0.952537775      0.934212506      0.310046852      -2.14530830E-03  0.264601320       2.43894756E-05
   9.17462707E-02  -6.15430705E-04  0.950797379      0.931831479      0.310365677      -2.25946191E-03  0.264969856       3.27378511E-05
  0.101939946      -7.29613879E-04  0.949144661      0.929573596      0.310528725      -2.33787694E-03  0.265200526       4.23733145E-05
  0.112133577      -8.47629446E-04  0.947586060      0.927447557      0.310546190      -2.38164025E-03  0.265301436       5.34560531E-05
  0.122327171      -9.68243345E-04  0.946124315      0.925456583      0.310432434      -2.39094789E-03  0.265284598       6.57681376E-05
  0.132520750      -1.09024998E-03  0.944757462      0.923598349      0.310205251      -2.36507249E-03  0.265165120       7.98851252E-05
  0.142714337      -1.21245917E-03  0.943479538      0.921864629      0.309885532      -2.30323896E-03  0.264961004       9.59783792E-05
  0.152907923      -1.33368257E-03  0.942281306      0.920241654      0.309496582      -2.20420887E-03  0.264692813       1.12976879E-04
  0.163101539      -1.45272142E-03  0.941150188      0.918710828      0.309062988      -2.06655497E-03  0.264382541       1.29662454E-04
  0.173295200      -1.56835280E-03  0.940070927      0.917250216      0.308609039      -1.88836863E-03  0.264051825       1.44924968E-04
  0.183488905      -1.67931605E-03  0.939027607      0.915837049      0.308155596      -1.66753528E-03  0.263719648       1.57736242E-04
  0.193682685      -1.78429752E-03  0.938003838      0.914448678      0.307719648      -1.40184723E-03  0.263401568       1.67764723E-04
  0.203876525      -1.88191328E-03  0.936985552      0.913066208      0.307312280      -1.08921668E-03  0.263107955       1.75528228E-04
  0.214070454      -1.97069068E-03  0.935962021      0.911675751      0.306939065      -7.27856182E-04  0.262844115       1.81633979E-04
  0.224264458      -2.04904471E-03  0.934926808      0.910269022      0.306600302      -3.15699319E-04  0.262610883       1.86730176E-04
  0.234458551      -2.11525219E-03  0.933877707      0.908843577      0.306292236       1.49822299E-04  0.262405217       1.91405416E-04
  0.244652733      -2.16741930E-03  0.932816803      0.907402456      0.306007892       6.72390044E-04  0.262221247       1.95804983E-04
  0.254846990      -2.20344099E-03  0.931749165      0.905953169      0.305737376       1.25743903E-03  0.262050420       2.00588256E-04
  0.265041292      -2.22095218E-03  0.930681229      0.904504836      0.305469096       1.91252620E-03  0.261882693       2.06202269E-04
  0.275235593      -2.21726228E-03  0.929620504      0.903067172      0.305190086       2.64804135E-03  0.261707127       2.12039798E-04
  0.285429865      -2.18927371E-03  0.928573787      0.901649773      0.304885656       3.47710657E-03  0.261511296       2.18465924E-04
  0.295624018      -2.13337177E-03  0.927546978      0.900260568      0.304539174       4.41725133E-03  0.261281520       2.25540251E-04
  0.305817962      -2.04527588E-03  0.926545084      0.898905993      0.304130971       5.49058337E-03  0.261001825       2.32774764E-04
  0.316011488      -1.91983546E-03  0.925572217      0.897591352      0.303636521       6.72621187E-03  0.260652751       2.39990652E-04
  0.326204360      -1.75073801E-03  0.924632549      0.896322846      0.303024232       8.16220231E-03  0.260209531       2.47806311E-04
  0.336396307      -1.53008103E-03  0.923731625      0.895107329      0.302252591       9.85019933E-03  0.259640157       2.55525112E-04
  0.346586645      -1.24772848E-03  0.922877014      0.893954992      0.301265836       1.18628349E-02  0.258902580       2.63150781E-04
  0.356774658      -8.90274358E-04  0.922079861      0.892881632      0.299988925       1.43056605E-02  0.257941842       2.71551311E-04
  0.366958946      -4.39326104E-04  0.921358287      0.891911149      0.298319906       1.73592474E-02  0.256688088       2.80089676E-04
  0.377137065       1.33766516E-04  0.920753241      0.891100049      0.296164066       2.18218807E-02  0.255124658       2.89943069E-04
  0.387299746       9.32033930E-04  0.920168459      0.890316248      0.294101000       2.85831764E-02  0.253884077       2.99409032E-04
  0.397434235       2.03104783E-03  0.919382751      0.889261484      0.292785168       3.72822434E-02  0.253636181       3.09932977E-04
  0.407523632       3.48527054E-03  0.918305337      0.887816787      0.292476207       4.78403345E-02  0.254736871       3.25623900E-04
  0.417543113       5.36030158E-03  0.916832864      0.885850191      0.293552786       6.07322901E-02  0.257743716       3.54688615E-04
  0.427456856       7.73026003E-03  0.914716899      0.883040845      0.296892673       7.66018853E-02  0.263744324       4.13108617E-04
  0.437217921       1.06651187E-02  0.911480129      0.878772140      0.304216057       9.60252732E-02  0.274585515       5.30004501E-04
  0.446780443       1.41935814E-02  0.906292439      0.871973574      0.318578929      0.118685812      0.292925864       7.54397362E-04
  0.456144422       1.82216074E-02  0.897917092      0.861034334      0.344432384      0.141049609      0.321228206       1.12768635E-03
  0.465438336       2.24102195E-02  0.885366380      0.844658017      0.384762377      0.153065085      0.358304620       1.63173676E-03
  0.474928796       2.61229333E-02  0.870207846      0.824928343      0.432823539      0.140533954      0.395016044       2.17375159E-03
  0.484786808       2.86871437E-02  0.857428551      0.808449030      0.470727861       9.97934639E-02  0.418817520       2.70677358E-03
  0.494905144       2.98680626E-02  0.850866795      0.800287187      0.486121923       4.64427024E-02  0.425561190       3.31494957E-03
  0.505094886       2.98680626E-02  0.849380791      0.798916280      0.482394218      -5.43802744E-03  0.420403421       4.04759496E-03
  0.515213192       2.86871418E-02  0.850100517      0.800754428      0.464110434      -5.75796105E-02  0.407248646       5.15998900E-03
  0.525071204       2.61229314E-02  0.853031933      0.805847108      0.430869132     -0.106738634      0.385985494       6.68038428E-03
  0.534561634       2.24102195E-02  0.859708309      0.815806627      0.388166219     -0.136628255      0.357024550       8.04902613E-03
  0.543855608       1.82216056E-02  0.869441271      0.829409659      0.346875012     -0.138401568      0.323164225       8.82519037E-03
  0.553219557       1.41935805E-02  0.879026949      0.842452407      0.314483166     -0.120621383      0.290780365       9.07751918E-03
  0.562782109       1.06651178E-02  0.886093616      0.851899564      0.292636722      -9.74365100E-02  0.265852422       9.01910663E-03
  0.572543144       7.73025956E-03  0.890580654      0.857790709      0.279276937      -7.65630081E-02  0.249375001       8.83910060E-03
  0.582456887       5.36030112E-03  0.893331766      0.861368537      0.271523625      -5.96888773E-02  0.239278391       8.68334994E-03
  0.592476368       3.48527008E-03  0.895059884      0.863663912      0.267245471      -4.63416465E-02  0.233363658       8.63889977E-03