 title = "grid"
                                   variables = "x","y","rho","P","u","v","M","S"
 zone n=        3000  e =        5742  et=quadrilateral, f=fepoint
   0.00000000       0.00000000      0.953844428      0.935984671      0.360605329      -8.58267376E-05  0.307661057       4.02331352E-07
   1.00000000       0.00000000      0.944739640      0.931568384      0.241917819       7.82657939E-04  0.205899268       8.69854540E-03
   1.00000000      0.300000012      0.950834751      0.932792246      0.294647634       1.64047349E-04  0.251419574       1.00821629E-03
   0.00000000      0.300000012      0.959708512      0.944050133      0.338201612      -1.18044758E-04  0.288193285      -5.21540642E-08
   1.00000000       1.03448275E-02  0.945647180      0.931668520      0.247004852       1.78795226E-03  0.210322946       7.46181048E-03
   1.00000000       2.06896551E-02  0.946726382      0.931716204      0.253835261       2.90472177E-03  0.216265246       5.91618754E-03
   1.00000000       3.10344826E-02  0.947556496      0.931773007      0.259412855       3.86050669E-03  0.221117467       4.75013815E-03
   1.00000000       4.13793102E-02  0.948200405      0.931838751      0.264135569       4.67971014E-03  0.225221947       3.86966020E-03
   1.00000000       5.17241396E-02  0.948704660      0.931913018      0.268187940       5.37843909E-03  0.228739068       3.20504792E-03
   1.00000000       6.20689653E-02  0.949103296      0.931994557      0.271672279       5.96711226E-03  0.231758714       2.70436332E-03
   1.00000000       7.24137947E-02  0.949421167      0.932081640      0.274657816       6.45252503E-03  0.234342054       2.32899003E-03
   1.00000000       8.27586204E-02  0.949677050      0.932172239      0.277200490       6.83952123E-03  0.236538604       2.04894878E-03
   1.00000000       9.31034461E-02  0.949885428      0.932263613      0.279350400       7.13210832E-03  0.238392726       1.83979236E-03
   1.00000000      0.103448279      0.950056493      0.932353735      0.281156182       7.33418996E-03  0.239947200       1.68437883E-03
   1.00000000      0.113793105      0.950197935      0.932440042      0.282665342       7.44970515E-03  0.241243675       1.56852603E-03
   1.00000000      0.124137931      0.950315475      0.932520330      0.283924192       7.48314708E-03  0.242322624       1.48145109E-03
   1.00000000      0.134482756      0.950413406      0.932593167      0.284977674       7.43955467E-03  0.243223161       1.41525827E-03
   1.00000000      0.144827589      0.950494587      0.932657003      0.285867870       7.32432492E-03  0.243981943       1.36415102E-03
   1.00000000      0.155172408      0.950561762      0.932711422      0.286633104       7.14290841E-03  0.244632214       1.32354908E-03
   1.00000000      0.165517241      0.950617254      0.932756364      0.287307322       6.90098852E-03  0.245203525       1.28998794E-03
   1.00000000      0.175862074      0.950662613      0.932792008      0.287920117       6.60374388E-03  0.245721415       1.26143545E-03
   1.00000000      0.186206892      0.950699806      0.932819188      0.288495749       6.25583669E-03  0.246207029       1.23583153E-03
   1.00000000      0.196551725      0.950730622      0.932839036      0.289053112       5.86129725E-03  0.246676788       1.21167675E-03
   1.00000000      0.206896558      0.950756609      0.932852685      0.289606690       5.42308763E-03  0.247143283       1.18804723E-03
   1.00000000      0.217241377      0.950779259      0.932861745      0.290166259       4.94342484E-03  0.247615099       1.16442889E-03
   1.00000000      0.227586210      0.950799882      0.932867169      0.290737659       4.42354660E-03  0.248097390       1.13990530E-03
   1.00000000      0.237931028      0.950819075      0.932869971      0.291323066       3.86405969E-03  0.248592168       1.11463480E-03
   1.00000000      0.248275861      0.950837314      0.932870924      0.291921556       3.26511217E-03  0.249098793       1.08879618E-03
   1.00000000      0.258620679      0.950854480      0.932870150      0.292528480       2.62757135E-03  0.249613509       1.06267631E-03
   1.00000000      0.268965513      0.950868666      0.932867348      0.293135405       1.95393292E-03  0.250129104       1.03878602E-03
   1.00000000      0.279310346      0.950876772      0.932860434      0.293731779       1.25203945E-03  0.250636667       1.01946667E-03
   1.00000000      0.289655179      0.950872719      0.932843804      0.294312775       5.43308153E-04  0.251132309       1.00754201E-03
  0.989898980      0.300000012      0.950969696      0.932967305      0.294326425       3.15691141E-04  0.251139820       9.97202471E-04
  0.979797959      0.300000012      0.951218545      0.933288395      0.293928921       3.22831067E-04  0.250790328       9.74981114E-04
  0.969696999      0.300000012      0.951338112      0.933432400      0.293801576       3.15110083E-04  0.250678062       9.53324139E-04
  0.959595978      0.300000012      0.951317251      0.933383763      0.293963462       2.98348110E-04  0.250819951       9.31896269E-04
  0.949494958      0.300000012      0.951150119      0.933134615      0.294418633       2.75765808E-04  0.251219779       9.10934061E-04
  0.939393938      0.300000012      0.950835645      0.932682931      0.295160472       2.49152916E-04  0.251872063       8.89727846E-04
  0.929292917      0.300000012      0.950376749      0.932033300      0.296174824       2.19738984E-04  0.252764702       8.68782401E-04
  0.919191897      0.300000012      0.949780166      0.931195378      0.297441393       1.88448874E-04  0.253880084       8.48408788E-04
  0.909090936      0.300000012      0.949056327      0.930183530      0.298935175       1.56059017E-04  0.255196482       8.28634948E-04
  0.898989916      0.300000012      0.948219061      0.929016888      0.300626934       1.23070611E-04  0.256688505       8.09224322E-04
  0.888888896      0.300000012      0.947285116      0.927718222      0.302484930       9.00168016E-05  0.258328348       7.89999962E-04
  0.878787875      0.300000012      0.946273029      0.926313043      0.304474950       5.74324440E-05  0.260085940       7.70768151E-04
  0.868686855      0.300000012      0.945203364      0.924829721      0.306561470       2.56636959E-05  0.261930048       7.51603395E-04
  0.858585835      0.300000012      0.944097102      0.923296869      0.308709353      -5.16266027E-06  0.263829529       7.32263550E-04
  0.848484874      0.300000012      0.942974627      0.921742499      0.310884833      -3.50205773E-05  0.265754551       7.12864101E-04
  0.838383853      0.300000012      0.941854417      0.920191705      0.313057691      -6.39725185E-05  0.267678261       6.93131238E-04
  0.828282833      0.300000012      0.940751553      0.918665528      0.315202445      -9.24248379E-05  0.269577950       6.73476607E-04
  0.818181813      0.300000012      0.939676821      0.917178690      0.317299992      -1.20780584E-04  0.271436572       6.54015690E-04
  0.808080792      0.300000012      0.938635647      0.915738344      0.319338113      -1.49623767E-04  0.273243368       6.34487718E-04
  0.797979772      0.300000012      0.937628090      0.914344728      0.321312040      -1.79527342E-04  0.274994135       6.15049154E-04
  0.787878811      0.300000012      0.936648428      0.912990630      0.323224247      -2.11129780E-04  0.276691079       5.96500933E-04
  0.777777791      0.300000012      0.935687125      0.911662340      0.325082839      -2.44692463E-04  0.278341800       5.78198582E-04
  0.767676771      0.300000012      0.934731007      0.910342634      0.326900363      -2.80634937E-04  0.279957712       5.60835004E-04
  0.757575750      0.300000012      0.933765650      0.909011662      0.328691602      -3.19085550E-04  0.281552255       5.44380397E-04
  0.747474730      0.300000012      0.932776630      0.907649815      0.330471903      -3.59966827E-04  0.283139467       5.28670847E-04
  0.737373710      0.300000012      0.931750596      0.906239569      0.332254827      -4.02906036E-04  0.284731776       5.14533371E-04
  0.727272749      0.300000012      0.930677950      0.904767454      0.334050387      -4.47556056E-04  0.286338389       5.01468778E-04
  0.717171729      0.300000012      0.929552734      0.903225005      0.335864514      -4.93373314E-04  0.287964940       4.88869846E-04
  0.707070708      0.300000012      0.928372800      0.901609957      0.337697685      -5.39784727E-04  0.289611965       4.77422029E-04
  0.696969688      0.300000012      0.927140892      0.899925828      0.339545190      -5.86206152E-04  0.291275352       4.66719270E-04
  0.686868668      0.300000012      0.925863802      0.898182333      0.341397166      -6.32138166E-04  0.292946249       4.57208604E-04
  0.676767647      0.300000012      0.924553096      0.896394312      0.343239695      -6.77320466E-04  0.294612199       4.47805971E-04
  0.666666687      0.300000012      0.923222244      0.894580722      0.345056236      -7.21397751E-04  0.296258062       4.39248979E-04
  0.656565666      0.300000012      0.921887875      0.892763853      0.346828073      -7.64543482E-04  0.297866762       4.31172550E-04
  0.646464646      0.300000012      0.920567811      0.890967607      0.348536581      -8.06902768E-04  0.299421102       4.23286110E-04
  0.636363626      0.300000012      0.919280529      0.889216959      0.350163966      -8.48676253E-04  0.300904661       4.15544957E-04
  0.626262605      0.300000012      0.918043673      0.887535989      0.351694524      -8.90304858E-04  0.302302450       4.08221036E-04
  0.616161644      0.300000012      0.916874588      0.885947764      0.353115499      -9.31926537E-04  0.303602397       4.01146710E-04
  0.606060624      0.300000012      0.915788651      0.884473443      0.354417324      -9.73111717E-04  0.304794967       3.94705683E-04
  0.595959604      0.300000012      0.914799929      0.883131146      0.355592579      -1.01329491E-03  0.305872858       3.88287008E-04
  0.585858583      0.300000012      0.913919866      0.881936133      0.356636792      -1.05168822E-03  0.306831181       3.81700695E-04
  0.575757563      0.300000012      0.913156986      0.880899966      0.357547045      -1.08679605E-03  0.307666779       3.75207514E-04
  0.565656543      0.300000012      0.912517548      0.880031228      0.358320534      -1.11652946E-03  0.308376580       3.69232148E-04
  0.555555582      0.300000012      0.912006080      0.879335284      0.358953029      -1.13819959E-03  0.308956534       3.63074243E-04
  0.545454562      0.300000012      0.911624134      0.878814340      0.359437972      -1.14966475E-03  0.309400886       3.56901437E-04
  0.535353541      0.300000012      0.911371231      0.878467798      0.359766871      -1.15023518E-03  0.309702069       3.50963324E-04
  0.525252521      0.300000012      0.911245108      0.878292143      0.359932572      -1.14228274E-03  0.309854239       3.44723463E-04
  0.515151501      0.300000012      0.911240339      0.878279805      0.359934360      -1.13138941E-03  0.309857070       3.37965786E-04
  0.505050480      0.300000012      0.911349118      0.878421068      0.359782130      -1.12399389E-03  0.309719622       3.31725925E-04
  0.494949490      0.300000012      0.911563933      0.878704965      0.359493077      -1.12149271E-03  0.309457242       3.24886292E-04
  0.484848499      0.300000012      0.911877632      0.879121840      0.359084517      -1.12241588E-03  0.309085429       3.17454338E-04
  0.474747479      0.300000012      0.912282467      0.879661679      0.358574510      -1.12811918E-03  0.308620214       3.10000032E-04
  0.464646459      0.300000012      0.912769973      0.880313337      0.357987553      -1.14182814E-03  0.308083266       3.02549452E-04
  0.454545468      0.300000012      0.913333416      0.881067336      0.357351422      -1.16228370E-03  0.307499141       2.94718891E-04
  0.444444448      0.300000012      0.913968980      0.881918490      0.356688172      -1.18399656E-03  0.306887090       2.86448747E-04
  0.434343427      0.300000012      0.914674938      0.882865191      0.356010735      -1.20217563E-03  0.306258202       2.78383493E-04
  0.424242437      0.300000012      0.915452182      0.883908391      0.355324179      -1.21422915E-03  0.305617005       2.70113349E-04
  0.414141417      0.300000012      0.916302443      0.885050654      0.354630083      -1.21953920E-03  0.304964632       2.61873007E-04
  0.404040396      0.300000012      0.917227566      0.886294782      0.353928030      -1.21857855E-03  0.304300696       2.53830105E-04
  0.393939406      0.300000012      0.918230236      0.887643933      0.353216976      -1.21179072E-03  0.303624272       2.45369971E-04
  0.383838385      0.300000012      0.919311821      0.889100611      0.352495462      -1.19974732E-03  0.302933961       2.37010419E-04
  0.373737365      0.300000012      0.920473039      0.890665591      0.351762325      -1.18307222E-03  0.302228898       2.28386372E-04
  0.363636374      0.300000012      0.921713114      0.892338157      0.351016939      -1.16240769E-03  0.301508516       2.19654292E-04
  0.353535354      0.300000012      0.923029482      0.894114554      0.350259900      -1.13874010E-03  0.300773710       2.10370868E-04
  0.343434334      0.300000012      0.924417019      0.895988345      0.349494427      -1.11332443E-03  0.300027609       2.00923532E-04
  0.333333343      0.300000012      0.925869405      0.897950590      0.348725557      -1.08691643E-03  0.299275041       1.90675259E-04
  0.323232323      0.300000012      0.927378118      0.899990618      0.347959816      -1.06011645E-03  0.298522115       1.80505216E-04
  0.313131303      0.300000012      0.928933620      0.902094960      0.347204387      -1.03336084E-03  0.297775745       1.69683248E-04
  0.303030312      0.300000012      0.930525780      0.904250562      0.346466690      -1.00690266E-03  0.297042847       1.58868730E-04
  0.292929292      0.300000012      0.932143748      0.906443059      0.345753670      -9.80857643E-04  0.296330065       1.48434192E-04
  0.282828271      0.300000012      0.933777332      0.908658445      0.345070988      -9.55191033E-04  0.295642853       1.38182193E-04
  0.272727281      0.300000012      0.935416520      0.910883546      0.344422579      -9.29625065E-04  0.294985235       1.28459185E-04
  0.262626261      0.300000012      0.937052071      0.913106024      0.343809992      -9.03673586E-04  0.294358969       1.19719654E-04
  0.252525240      0.300000012      0.938676119      0.915315211      0.343232334      -8.77061102E-04  0.293763697       1.11903995E-04
  0.242424250      0.300000012      0.940281868      0.917501390      0.342686713      -8.49332253E-04  0.293197483       1.04673207E-04
  0.232323229      0.300000012      0.941863477      0.919656992      0.342168599      -8.20485118E-04  0.292656660       9.84407961E-05
  0.222222224      0.300000012      0.943416357      0.921774805      0.341672838      -7.90616439E-04  0.292137235       9.22530890E-05
  0.212121218      0.300000012      0.944936574      0.923849225      0.341194600      -7.60277500E-04  0.291635245       8.60542059E-05
  0.202020198      0.300000012      0.946420014      0.925874352      0.340730578      -7.30167259E-04  0.291148126       7.95647502E-05
  0.191919193      0.300000012      0.947862685      0.927844763      0.340279996      -7.01136247E-04  0.290675461       7.30641186E-05
  0.181818187      0.300000012      0.949259818      0.929754078      0.339844406      -6.73596573E-04  0.290218741       6.67050481E-05
  0.171717167      0.300000012      0.950607061      0.931595266      0.339427412      -6.47892419E-04  0.289781451       5.94742596E-05
  0.161616161      0.300000012      0.951897800      0.933359921      0.339034051      -6.23522385E-04  0.289368063       5.22974879E-05
  0.151515156      0.300000012      0.953124940      0.935038209      0.338668376      -5.99505962E-04  0.288982511       4.50685620E-05
  0.141414136      0.300000012      0.954280078      0.936619043      0.338333607      -5.74445294E-04  0.288627803       3.86424363E-05
  0.131313130      0.300000012      0.955354989      0.938089907      0.338031024      -5.47097821E-04  0.288305730       3.17394733E-05
  0.121212125      0.300000012      0.956340075      0.939437926      0.337761253      -5.16786647E-04  0.288017213       2.48402357E-05
  0.111111112      0.300000012      0.957225859      0.940650582      0.337525427      -4.83595097E-04  0.287763685       1.87754631E-05
  0.101010099      0.300000012      0.958003581      0.941715539      0.337326288      -4.48308274E-04  0.287547916       1.32750720E-05
   9.09090936E-02  0.300000012      0.958665669      0.942622781      0.337168574      -4.12135560E-04  0.287374377       8.95000994E-06
   8.08080807E-02  0.300000012      0.959206760      0.943364918      0.337059021      -3.76144599E-04  0.287248939       5.99958003E-06
   7.07070678E-02  0.300000012      0.959624708      0.943938315      0.337004572      -3.41178704E-04  0.287177801       3.72156501E-06
   6.06060624E-02  0.300000012      0.959920585      0.944344461      0.337011427      -3.07850278E-04  0.287166148       2.32458115E-06
   5.05050495E-02  0.300000012      0.960098922      0.944589198      0.337084472      -2.76585954E-04  0.287217826       1.39139593E-06
   4.04040404E-02  0.300000012      0.960168064      0.944683969      0.337225825      -2.47435819E-04  0.287334174       8.69855285E-07
   3.03030312E-02  0.300000012      0.960139930      0.944644868      0.337433517      -2.19296518E-04  0.287512869       5.49480319E-07
   2.02020202E-02  0.300000012      0.960029840      0.944493115      0.337696671      -1.88712220E-04  0.287743688       3.52039933E-07
   1.01010101E-02  0.300000012      0.959857225      0.944255292      0.337988853      -1.48798164E-04  0.288002998       3.16649675E-07
   0.00000000      0.289655179      0.959683120      0.944015265      0.338300437      -2.28524092E-04  0.288279057       4.65661287E-08
   0.00000000      0.279310346      0.959632933      0.943946183      0.338518828      -3.55934055E-04  0.288468242       4.84287739E-08
   0.00000000      0.268965513      0.959545434      0.943825841      0.338895857      -4.73336404E-04  0.288794905       2.30967999E-07
   0.00000000      0.258620679      0.959422529      0.943656504      0.339422375      -5.80821652E-04  0.289251119       1.45286322E-07
   0.00000000      0.248275861      0.959265530      0.943440378      0.340089560      -6.77338452E-04  0.289829344       2.21654773E-07
   0.00000000      0.237931028      0.959076405      0.943179846      0.340887517      -7.61499978E-04  0.290520996       5.58793545E-08
   0.00000000      0.227586210      0.958856583      0.942877352      0.341804266      -8.31740035E-04  0.291315764       2.29105353E-07
   0.00000000      0.217241377      0.958608806      0.942536414      0.342825502      -8.86623922E-04  0.292201370       3.66941094E-07
   0.00000000      0.206896558      0.958336353      0.942161202      0.343934119      -9.24952736E-04  0.293163031       1.54599547E-07
   0.00000000      0.196551725      0.958042681      0.941757143      0.345110983      -9.46064596E-04  0.294184238       2.70083547E-07
   0.00000000      0.186206892      0.957732379      0.941330075      0.346335113      -9.50039132E-04  0.295246869       1.97440386E-07
   0.00000000      0.175862074      0.957410514      0.940887213      0.347584128      -9.37504112E-04  0.296331495       1.89989805E-07
   0.00000000      0.165517241      0.957082033      0.940435350      0.348835796      -9.09905881E-04  0.297418952       2.53319740E-07
   0.00000000      0.155172408      0.956752956      0.939982712      0.350068331      -8.69172625E-04  0.298490226       2.86847353E-07
   0.00000000      0.144827589      0.956428707      0.939536631      0.351262003      -8.18201283E-04  0.299528241       1.45286322E-07
   0.00000000      0.134482756      0.956113994      0.939103842      0.352400094      -7.59924704E-04  0.300518364       1.80676579E-07
   0.00000000      0.124137931      0.955813229      0.938690484      0.353469461      -6.97546930E-04  0.301449150       4.13507223E-07
   0.00000000      0.113793105      0.955530345      0.938301504      0.354461044      -6.34205411E-04  0.302312583       3.31550837E-07
   0.00000000      0.103448279      0.955267251      0.937939882      0.355370522      -5.72849764E-04  0.303104818       3.59490514E-07
   0.00000000       9.31034461E-02  0.955025196      0.937607348      0.356197029      -5.15912310E-04  0.303825110       5.19677997E-07
   0.00000000       8.27586204E-02  0.954804897      0.937304556      0.356943846      -4.65099118E-04  0.304476082       5.14090061E-07
   0.00000000       7.24137947E-02  0.954605401      0.937030375      0.357616812      -4.21678036E-04  0.305062830       4.84287739E-07
   0.00000000       6.20689653E-02  0.954425573      0.936783254      0.358223975      -3.85936786E-04  0.305592269       4.86150384E-07
   0.00000000       5.17241396E-02  0.954263389      0.936560452      0.358775288      -3.57216370E-04  0.306072921       5.79282641E-07
   0.00000000       4.13793102E-02  0.954116821      0.936359227      0.359281123      -3.32760363E-04  0.306513846       7.41332769E-07
   0.00000000       3.10344826E-02  0.953984022      0.936176717      0.359751821      -3.06723523E-04  0.306923956       6.53788447E-07
   0.00000000       2.06896551E-02  0.953863382      0.936011136      0.360197753      -2.66352377E-04  0.307312131       8.27014446E-07
   0.00000000       1.03448275E-02  0.953755200      0.935862362      0.360628635      -1.83792406E-04  0.307686687       7.15255737E-07
   1.01942774E-02  -1.06002917E-05  0.953248978      0.935167730      0.361110687      -3.51715484E-04  0.308130682       1.40257180E-06
   2.03885511E-02  -4.05888240E-05  0.951878250      0.933287203      0.362032026      -9.49370966E-04  0.309006393       3.11993062E-06
   3.05827484E-02  -8.74972393E-05  0.950589597      0.931520402      0.362777323      -1.52411871E-03  0.309727877       4.85219061E-06
   4.07768898E-02  -1.49138228E-04  0.949362814      0.929839373      0.363404334      -2.04753084E-03  0.310345262       6.49504364E-06
   5.09709269E-02  -2.23550553E-04  0.948190928      0.928234637      0.363943577      -2.51842337E-03  0.310884774       8.42101872E-06
   6.11648858E-02  -3.08956922E-04  0.947071850      0.926703393      0.364412308      -2.93957163E-03  0.311361045       1.06897205E-05
   7.13587478E-02  -4.03728453E-04  0.946007192      0.925247312      0.364820272      -3.31431883E-03  0.311782092       1.29044056E-05
   8.15525427E-02  -5.06357115E-04  0.944999695      0.923870027      0.365173876      -3.64614674E-03  0.312153161       1.50837004E-05
   9.17462707E-02  -6.15430705E-04  0.944053888      0.922577679      0.365476847      -3.93802673E-03  0.312476963       1.70990825E-05
  0.101939946      -7.29613879E-04  0.943175256      0.921377122      0.365731835      -4.19245334E-03  0.312755376       1.85370445E-05
  0.112133577      -8.47629446E-04  0.942369640      0.920277059      0.365939140      -4.41082567E-03  0.312988013       2.02618539E-05
  0.122327171      -9.68243345E-04  0.941643894      0.919286788      0.366096467      -4.59384779E-03  0.313172430       2.22325325E-05
  0.132520750      -1.09024998E-03  0.941005409      0.918416739      0.366196662      -4.74079326E-03  0.313301802       2.49296427E-05
  0.142714337      -1.21245917E-03  0.940462589      0.917678475      0.366228133      -4.85046813E-03  0.313365579       2.85916030E-05
  0.152907923      -1.33368257E-03  0.940024853      0.917084932      0.366173953      -4.92141675E-03  0.313348413       3.33748758E-05
  0.163101539      -1.45272142E-03  0.939702570      0.916650534      0.366014391      -4.95240791E-03  0.313232780       3.96668911E-05
  0.173295200      -1.56835280E-03  0.939507663      0.916391492      0.365727723      -4.94236313E-03  0.312999189       4.74080443E-05
  0.183488905      -1.67931605E-03  0.939453304      0.916325808      0.365292132      -4.89033153E-03  0.312628001       5.67473471E-05
  0.193682685      -1.78429752E-03  0.939553976      0.916473150      0.364686549      -4.79523512E-03  0.312100381       6.75469637E-05
  0.203876525      -1.88191328E-03  0.939825475      0.916855454      0.363890857      -4.65512834E-03  0.311398000       8.01049173E-05
  0.214070454      -1.97069068E-03  0.940284669      0.917495668      0.362885267      -4.46737790E-03  0.310503066       9.42535698E-05
  0.224264458      -2.04904471E-03  0.940949440      0.918418348      0.361649662      -4.22785617E-03  0.309397340       1.09985471E-04
  0.234458551      -2.11525219E-03  0.941838503      0.919648409      0.360162646      -3.93116008E-03  0.308061779       1.26194209E-04
  0.244652733      -2.16741930E-03  0.942970097      0.921210885      0.358401120      -3.57033499E-03  0.306475878       1.42727047E-04
  0.254846990      -2.20344099E-03  0.944362223      0.923130333      0.356339425      -3.13662854E-03  0.304617226       1.58857554E-04
  0.265041292      -2.22095218E-03  0.946031630      0.925429404      0.353949487      -2.61939713E-03  0.302461654       1.73574314E-04
  0.275235593      -2.21726228E-03  0.947992325      0.928127885      0.351200789      -2.00592750E-03  0.299983293       1.86713412E-04
  0.285429865      -2.18927371E-03  0.950254500      0.931240797      0.348061562      -1.28116785E-03  0.297155648       1.98250636E-04
  0.295624018      -2.13337177E-03  0.952823222      0.934776604      0.344499975      -4.26947838E-04  0.293952912       2.08543614E-04
  0.305817962      -2.04527588E-03  0.955697060      0.938735247      0.340486050       5.78510342E-04  0.290351778       2.18208879E-04
  0.316011488      -1.91983546E-03  0.958866835      0.943105936      0.335992992       1.76244928E-03  0.286332786       2.27652490E-04
  0.326204360      -1.75073801E-03  0.962314308      0.947865248      0.330998331       3.15945642E-03  0.281881630       2.36919150E-04
  0.336396307      -1.53008103E-03  0.966010273      0.952975512      0.325484276       4.81558638E-03  0.276989639       2.47031450E-04
  0.346586645      -1.24772848E-03  0.969914675      0.958383143      0.319436550       6.79484010E-03  0.271653950       2.58410349E-04
  0.356774658      -8.90274358E-04  0.973975658      0.964017928      0.312842458       9.18995589E-03  0.265876830       2.71154568E-04
  0.366958946      -4.39326104E-04  0.978131473      0.969795465      0.305686325       1.21619357E-02  0.259665370       2.85553746E-04
  0.377137065       1.33766516E-04  0.982324600      0.975638986      0.297986090       1.64778717E-02  0.253091693       3.04233283E-04
  0.387299746       9.32033930E-04  0.986349285      0.981263876      0.290470153       2.29431316E-02  0.246893957       3.28753144E-04
  0.397434235       2.03104783E-03  0.989904463      0.986248255      0.283910155       3.10885888E-02  0.241829142       3.58367339E-04
  0.407523632       3.48527054E-03  0.992850006      0.990395963      0.278646946       4.07566205E-02  0.238300115       3.95538053E-04
  0.417543113       5.36030158E-03  0.995053291      0.993524849      0.275120318       5.23434617E-02  0.236872002       4.46412247E-04
  0.427456856       7.73026003E-03  0.996274412      0.995310605      0.274218172       6.64107502E-02  0.238571733       5.25177689E-04
  0.437217921       1.06651187E-02  0.996105373      0.995206952      0.277556360       8.34759995E-02  0.245067969       6.58546225E-04
  0.446780443       1.41935814E-02  0.993850648      0.992283463      0.287911624      0.103266031      0.258712113       8.89182091E-04
  0.456144422       1.82216074E-02  0.988477767      0.985139608      0.309270591      0.122653298      0.281662434       1.25285191E-03
  0.465438336       2.24102195E-02  0.979184389      0.972656369      0.344198972      0.132710844      0.312819481       1.72502734E-03
  0.474928796       2.61229333E-02  0.967312872      0.956641138      0.386530340      0.120945193      0.344200224       2.19966657E-03
  0.484786808       2.86871437E-02  0.957044780      0.942829430      0.420408487       8.44134241E-02  0.365123451       2.59727240E-03
  0.494905144       2.98680626E-02  0.951678932      0.935804605      0.434950054       3.70717421E-02  0.372048676       2.98997201E-03
  0.505094886       2.98680626E-02  0.950467348      0.934590280      0.432568520      -8.87038838E-03  0.368756890       3.47498804E-03
  0.515213192       2.86871418E-02  0.951049626      0.936137497      0.416841388      -5.52770980E-02  0.358198702       4.27172892E-03
  0.525071204       2.61229314E-02  0.953434289      0.940517008      0.387310565      -9.89769846E-02  0.340168804       5.43316826E-03
  0.534561634       2.24102195E-02  0.959019840      0.949339032      0.348873168     -0.124942049      0.314782649       6.59165438E-03
  0.543855608       1.82216056E-02  0.967141390      0.961436868      0.311471164     -0.125454381      0.284632683       7.44840223E-03
  0.553219557       1.41935805E-02  0.974792302      0.972713530      0.282234371     -0.108865008      0.255934417       8.07752647E-03
  0.562782109       1.06651178E-02  0.979834855      0.980303705      0.262958735      -8.80477279E-02  0.234311953       8.62688944E-03
  0.572543144       7.73025956E-03  0.982313216      0.984271348      0.251929909      -6.96303472E-02  0.220682621       9.12947115E-03
  0.582456887       5.36030112E-03  0.983094394      0.985739946      0.246516779      -5.48059829E-02  0.213144913       9.50746424E-03
  0.592476368       3.48527008E-03  0.982889593      0.985621572      0.244577438      -4.29473519E-02  0.209577277       9.67899896E-03