 title = "grid"
                                   variables = "x","y","rho","P","u","v","M","S"
 zone n=        3000  e =        5742  et=quadrilateral, f=fepoint
   0.00000000       0.00000000      0.952375948      0.933967531      0.368333250      -4.17419971E-04  0.314351469      -3.72529030E-08
   1.00000000       0.00000000      0.946500599      0.934000611      0.253043979       1.04747980E-03  0.215289369       8.69894028E-03
   1.00000000      0.300000012      0.951316833      0.933382094      0.311627895       3.29679955E-04  0.265892088       9.30743292E-04
   0.00000000      0.300000012      0.957156777      0.940538347      0.346675187       9.98083124E-05  0.295571148       4.37721610E-07
   1.00000000       1.03448275E-02  0.947325766      0.933882773      0.258154869       1.66633388E-03  0.219750002       7.35282712E-03
   1.00000000       2.06896551E-02  0.948456287      0.933888018      0.264876038       2.38345237E-03  0.225609556       5.68863936E-03
   1.00000000       3.10344826E-02  0.949284613      0.933882833      0.270416200       3.02068144E-03  0.230434656       4.46096249E-03
   1.00000000       4.13793102E-02  0.949891984      0.933868945      0.275191218       3.58163984E-03  0.234585658       3.55060957E-03
   1.00000000       5.17241396E-02  0.950333655      0.933847010      0.279383004       4.07046964E-03  0.238222197       2.87631340E-03
   1.00000000       6.20689653E-02  0.950649738      0.933818161      0.283084661       4.49160999E-03  0.241427153       2.37990916E-03
   1.00000000       7.24137947E-02  0.950871289      0.933783472      0.286356509       4.84908372E-03  0.244254768       2.01651640E-03
   1.00000000       8.27586204E-02  0.951021373      0.933744073      0.289245784       5.14658866E-03  0.246747598       1.75337866E-03
   1.00000000       9.31034461E-02  0.951119423      0.933701456      0.291794360       5.38740354E-03  0.248943284       1.56339258E-03
   1.00000000      0.103448279      0.951179802      0.933657229      0.294041336       5.57439588E-03  0.250876516       1.42711587E-03
   1.00000000      0.113793105      0.951214015      0.933612645      0.296024412       5.70992939E-03  0.252580643       1.32906623E-03
   1.00000000      0.124137931      0.951230228      0.933569670      0.297778726       5.79613773E-03  0.254086375       1.25913881E-03
   1.00000000      0.134482756      0.951236010      0.933529794      0.299336433       5.83435642E-03  0.255421877       1.20794587E-03
   1.00000000      0.144827589      0.951235771      0.933494031      0.300726444       5.82568673E-03  0.256612241       1.16995722E-03
   1.00000000      0.155172408      0.951233327      0.933463991      0.301974297       5.77053986E-03  0.257679552       1.14133582E-03
   1.00000000      0.165517241      0.951231778      0.933440447      0.303100765       5.66896470E-03  0.258641899       1.11842901E-03
   1.00000000      0.175862074      0.951232612      0.933423817      0.304123819       5.52060315E-03  0.259514660       1.09936483E-03
   1.00000000      0.186206892      0.951237261      0.933414578      0.305057943       5.32474974E-03  0.260310441       1.08266063E-03
   1.00000000      0.196551725      0.951246500      0.933412671      0.305915117       5.08056022E-03  0.261039644       1.06697902E-03
   1.00000000      0.206896558      0.951260567      0.933417380      0.306705117       4.78735473E-03  0.261710852       1.05135515E-03
   1.00000000      0.217241377      0.951278746      0.933427870      0.307435960       4.44443570E-03  0.262330949       1.03580020E-03
   1.00000000      0.227586210      0.951300800      0.933442652      0.308113754       4.05164808E-03  0.262905568       1.01917796E-03
   1.00000000      0.237931028      0.951325417      0.933460355      0.308743924       3.60915367E-03  0.263439357       1.00198202E-03
   1.00000000      0.248275861      0.951351643      0.933479249      0.309330612       3.11790314E-03  0.263936311       9.83595848E-04
   1.00000000      0.258620679      0.951377392      0.933497846      0.309876293       2.57961638E-03  0.264398605       9.65591520E-04
   1.00000000      0.268965513      0.951400697      0.933514357      0.310381562       1.99671579E-03  0.264826924       9.48991627E-04
   1.00000000      0.279310346      0.951419115      0.933527768      0.310846537       1.37237948E-03  0.265221387       9.36273485E-04
   1.00000000      0.289655179      0.951430798      0.933536947      0.311275572       7.10230670E-04  0.265585870       9.28936526E-04
  0.989898980      0.300000012      0.951857090      0.934114397      0.311037600       4.81783674E-04  0.265359849       9.20122489E-04
  0.979797959      0.300000012      0.953136206      0.935852468      0.309873372       4.78483387E-04  0.264298379       8.99044797E-04
  0.969696999      0.300000012      0.954432487      0.937615156      0.308671087       4.73158841E-04  0.263204157       8.77985731E-04
  0.959595978      0.300000012      0.955735028      0.939387739      0.307451248       4.66650265E-04  0.262095213       8.57481733E-04
  0.949494958      0.300000012      0.957029343      0.941150010      0.306236744       4.59861680E-04  0.260991842       8.36968422E-04
  0.939393938      0.300000012      0.958296835      0.942877054      0.305052400       4.53421148E-04  0.259916246       8.17412511E-04
  0.929292917      0.300000012      0.959517658      0.944540620      0.303924143       4.47713450E-04  0.258891523       7.97821209E-04
  0.919191897      0.300000012      0.960669518      0.946110308      0.302879006       4.43271943E-04  0.257941812       7.78665766E-04
  0.909090936      0.300000012      0.961730480      0.947555006      0.301943332       4.40573989E-04  0.257090718       7.59122893E-04
  0.898989916      0.300000012      0.962678432      0.948844850      0.301142603       4.39925294E-04  0.256360829       7.40179792E-04
  0.888888896      0.300000012      0.963493645      0.949951768      0.300499946       4.41703422E-04  0.255772859       7.21100718E-04
  0.878787875      0.300000012      0.964157879      0.950850308      0.300035775       4.46346967E-04  0.255345076       7.01652840E-04
  0.868686855      0.300000012      0.964656174      0.951520026      0.299766690       4.54209949E-04  0.255092204       6.82383776E-04
  0.858585835      0.300000012      0.964977086      0.951945066      0.299705446       4.65576653E-04  0.255025536       6.63373619E-04
  0.848484874      0.300000012      0.965113342      0.952114701      0.299860477       4.80725808E-04  0.255152792       6.43867999E-04
  0.838383853      0.300000012      0.965061188      0.952024519      0.300235957       4.99810441E-04  0.255477488       6.24829903E-04
  0.828282833      0.300000012      0.964821398      0.951675534      0.300831050       5.22914925E-04  0.255999029       6.06019050E-04
  0.818181813      0.300000012      0.964398861      0.951074839      0.301640481       5.50096680E-04  0.256712705       5.87917864E-04
  0.808080792      0.300000012      0.963802636      0.950235426      0.302654505       5.81443135E-04  0.257609755       5.70701435E-04
  0.797979772      0.300000012      0.963046014      0.949175596      0.303858966       6.16810168E-04  0.258677781       5.54291531E-04
  0.787878811      0.300000012      0.962145746      0.947919011      0.305235386       6.56181597E-04  0.259900242       5.38835302E-04
  0.777777791      0.300000012      0.961121976      0.946493566      0.306761652       6.99452998E-04  0.261257410       5.24388626E-04
  0.767676771      0.300000012      0.959997475      0.944930971      0.308412403       7.46464590E-04  0.262726605       5.11066988E-04
  0.757575750      0.300000012      0.958796740      0.943265021      0.310160220       7.97068584E-04  0.264283419       4.98659909E-04
  0.747474730      0.300000012      0.957545221      0.941530645      0.311976075       8.50958808E-04  0.265901834       4.86923382E-04
  0.737373710      0.300000012      0.956267297      0.939761877      0.313831747       9.07893234E-04  0.267556459       4.76174057E-04
  0.727272749      0.300000012      0.954986095      0.937990248      0.315700531       9.67221800E-04  0.269223332       4.66203317E-04
  0.717171729      0.300000012      0.953721344      0.936242998      0.317559570       1.02827710E-03  0.270881861       4.57029790E-04
  0.707070708      0.300000012      0.952488601      0.934541345      0.319390982       1.09023228E-03  0.272515893       4.48541716E-04
  0.696969688      0.300000012      0.951298714      0.932899892      0.321182966       1.15224265E-03  0.274114639       4.40625474E-04
  0.686868668      0.300000012      0.950157583      0.931326330      0.322930098       1.21328374E-03  0.275673151       4.32858244E-04
  0.676767647      0.300000012      0.949065506      0.929821134      0.324633837       1.27237348E-03  0.277192503       4.25366685E-04
  0.666666687      0.300000012      0.948018730      0.928378880      0.326301545       1.32868579E-03  0.278679192       4.18080017E-04
  0.656565666      0.300000012      0.947009325      0.926989138      0.327945560       1.38147571E-03  0.280144066       4.11408022E-04
  0.646464646      0.300000012      0.946027517      0.925637841      0.329581201       1.43035525E-03  0.281600773       4.04879451E-04
  0.636363626      0.300000012      0.945062339      0.924309850      0.331224918       1.47516956E-03  0.283064067       3.98168340E-04
  0.626262605      0.300000012      0.944102347      0.922989905      0.332891583       1.51640561E-03  0.284547240       3.91971320E-04
  0.616161644      0.300000012      0.943137646      0.921663821      0.334591985       1.55495922E-03  0.286060244       3.85507941E-04
  0.606060624      0.300000012      0.942160070      0.920320630      0.336331308       1.59137906E-03  0.287607968       3.78962606E-04
  0.595959604      0.300000012      0.941163301      0.918951929      0.338107914       1.62663439E-03  0.289189458       3.72577459E-04
  0.585858583      0.300000012      0.940144241      0.917553484      0.339912802       1.66160206E-03  0.290797204       3.66367400E-04
  0.575757563      0.300000012      0.939102232      0.916124165      0.341729820       1.69653608E-03  0.292417586       3.59926373E-04
  0.565656543      0.300000012      0.938039243      0.914666474      0.343537778       1.73064228E-03  0.294032365       3.53060663E-04
  0.555555582      0.300000012      0.936958253      0.913184941      0.345314413       1.76170014E-03  0.295622230       3.46314162E-04
  0.545454562      0.300000012      0.935863793      0.911685288      0.347039968       1.78650499E-03  0.297170073       3.39012593E-04
  0.535353541      0.300000012      0.934759855      0.910173535      0.348701626       1.80231419E-03  0.298664540       3.31878662E-04
  0.525252521      0.300000012      0.933651865      0.908656538      0.350295633       1.80858222E-03  0.300102144       3.24238092E-04
  0.515151501      0.300000012      0.932546675      0.907143831      0.351823688       1.80859002E-03  0.301483840       3.16262245E-04
  0.505050480      0.300000012      0.931454003      0.905648768      0.353285998       1.80693506E-03  0.302809089       3.08148563E-04
  0.494949490      0.300000012      0.930383921      0.904184580      0.354680002       1.80410035E-03  0.304075062       2.99345702E-04
  0.484848499      0.300000012      0.929343700      0.902762055      0.356007427       1.79666164E-03  0.305282623       2.91027129E-04
  0.474747479      0.300000012      0.928341627      0.901392043      0.357273817       1.78425014E-03  0.306435943       2.82716006E-04
  0.464646459      0.300000012      0.927387416      0.900087416      0.358479083       1.77006552E-03  0.307534158       2.74024904E-04
  0.454545468      0.300000012      0.926488817      0.898858964      0.359615207       1.75366050E-03  0.308569819       2.65486538E-04
  0.444444448      0.300000012      0.925650418      0.897712946      0.360673755       1.72995916E-03  0.309535354       2.57138163E-04
  0.434343427      0.300000012      0.924874604      0.896652162      0.361652076       1.69399765E-03  0.310428202       2.48670578E-04
  0.424242437      0.300000012      0.924163043      0.895678639      0.362553388       1.64344127E-03  0.311250895       2.39849091E-04
  0.414141417      0.300000012      0.923516929      0.894794047      0.363383800       1.57869584E-03  0.312008590       2.30882317E-04
  0.404040396      0.300000012      0.922938526      0.894001365      0.364149600       1.50138233E-03  0.312706381       2.21725553E-04
  0.393939406      0.300000012      0.922430336      0.893303752      0.364856601       1.41393219E-03  0.313349247       2.12173909E-04
  0.383838385      0.300000012      0.921994984      0.892704546      0.365509033       1.31871609E-03  0.313940465       2.02056020E-04
  0.373737365      0.300000012      0.921635389      0.892208219      0.366109550       1.21810858E-03  0.314482063       1.92053616E-04
  0.363636374      0.300000012      0.921355307      0.891819358      0.366659194       1.11443398E-03  0.314974695       1.81693584E-04
  0.353535354      0.300000012      0.921158493      0.891543031      0.367156923       1.01002166E-03  0.315417200       1.70901418E-04
  0.343434334      0.300000012      0.921048939      0.891385496      0.367600083       9.06995730E-04  0.315806806       1.60623342E-04
  0.333333343      0.300000012      0.921031177      0.891352415      0.367983669       8.07075703E-04  0.316138953       1.50546432E-04
  0.323232323      0.300000012      0.921109200      0.891449571      0.368301302       7.11804198E-04  0.316407859       1.40924007E-04
  0.313131303      0.300000012      0.921286881      0.891682565      0.368545264       6.22357766E-04  0.316606432       1.32266432E-04
  0.303030312      0.300000012      0.921567738      0.892055869      0.368707120       5.39811968E-04  0.316727400       1.24078244E-04
  0.292929292      0.300000012      0.921954155      0.892572761      0.368778616       4.64820128E-04  0.316763312       1.16489828E-04
  0.282828271      0.300000012      0.922447205      0.893235147      0.368752003       3.97741416E-04  0.316707641       1.09769404E-04
  0.272727281      0.300000012      0.923047125      0.894042611      0.368621379       3.38454760E-04  0.316555262       1.03164464E-04
  0.262626261      0.300000012      0.923751831      0.894992709      0.368383378       2.86580907E-04  0.316303521       9.68649983E-05
  0.252525240      0.300000012      0.924557865      0.896080375      0.368037641       2.41360176E-04  0.315952569       9.03569162E-05
  0.242424250      0.300000012      0.925460041      0.897299051      0.367587239       2.01923307E-04  0.315505356       8.39643180E-05
  0.232323229      0.300000012      0.926451862      0.898639619      0.367038965       1.67314967E-04  0.314968288       7.72625208E-05
  0.222222224      0.300000012      0.927525282      0.900091588      0.366402060       1.36776551E-04  0.314349949       7.05383718E-05
  0.212121218      0.300000012      0.928671837      0.901643395      0.365687817       1.09836219E-04  0.313660800       6.35907054E-05
  0.202020198      0.300000012      0.929882526      0.903282940      0.364908010       8.63677342E-05  0.312911510       5.63487411E-05
  0.191919193      0.300000012      0.931148112      0.904998243      0.364073813       6.66050473E-05  0.312112331       4.94532287E-05
  0.181818187      0.300000012      0.932459831      0.906777322      0.363194287       5.10706886E-05  0.311271787       4.24906611E-05
  0.171717167      0.300000012      0.933809459      0.908609152      0.362276822       4.01319485E-05  0.310396701       3.57925892E-05
  0.161616161      0.300000012      0.935189247      0.910483301      0.361326575       3.40016813E-05  0.309492171       2.91578472E-05
  0.151515156      0.300000012      0.936592758      0.912391424      0.360347420       3.23023414E-05  0.308561832       2.32346356E-05
  0.141414136      0.300000012      0.938013494      0.914324999      0.359343618       3.43009633E-05  0.307609797       1.81347132E-05
  0.131313130      0.300000012      0.939446747      0.916277647      0.358319819       3.90331079E-05  0.306640387       1.39437616E-05
  0.121212125      0.300000012      0.940888226      0.918243468      0.357282013       4.52851964E-05  0.305659026       1.06245279E-05
  0.111111112      0.300000012      0.942334592      0.920217633      0.356237739       5.19051464E-05  0.304672480       7.72625208E-06
  0.101010099      0.300000012      0.943782270      0.922195733      0.355195880       5.79874213E-05  0.303688437       5.88595867E-06
   9.09090936E-02  0.300000012      0.945228279      0.924173295      0.354166150       6.27700065E-05  0.302715540       4.65661287E-06
   8.08080807E-02  0.300000012      0.946669757      0.926146150      0.353158981       6.60322767E-05  0.301762789       3.69921327E-06
   7.07070678E-02  0.300000012      0.948103011      0.928109407      0.352183849       6.81588499E-05  0.300838619       3.31550837E-06
   6.06060624E-02  0.300000012      0.949524403      0.930057347      0.351248085       7.02432808E-05  0.299949497       2.61887908E-06
   5.05050495E-02  0.300000012      0.950929344      0.931984067      0.350354940       7.40212563E-05  0.299098432       2.15321779E-06
   4.04040404E-02  0.300000012      0.952312887      0.933882654      0.349503458       8.13663937E-05  0.298284829       1.76951289E-06
   3.03030312E-02  0.300000012      0.953669131      0.935745060      0.348689675       9.33663832E-05  0.297505617       1.70059502E-06
   2.02020202E-02  0.300000012      0.954991400      0.937561750      0.347909838       1.09027649E-04  0.296758056       1.44168735E-06
   1.01010101E-02  0.300000012      0.956269205      0.939318001      0.347170591       1.21600438E-04  0.296048373       8.95932317E-07
   0.00000000      0.289655179      0.957234323      0.940644860      0.346584201      -1.90561514E-06  0.295488805       2.34693289E-07
   0.00000000      0.279310346      0.957242191      0.940655768      0.346558213      -9.60660545E-05  0.295466155       3.50177288E-07
   0.00000000      0.268965513      0.957228005      0.940636456      0.346630126      -1.78266549E-04  0.295528322       5.81145287E-07
   0.00000000      0.258620679      0.957195580      0.940591753      0.346786946      -2.55771389E-04  0.295664102       4.84287739E-07
   0.00000000      0.248275861      0.957146108      0.940523684      0.347023398      -3.31074756E-04  0.295868784       4.74974513E-07
   0.00000000      0.237931028      0.957080185      0.940432966      0.347337186      -4.05351951E-04  0.296140492       4.17232513E-07
   0.00000000      0.227586210      0.956997931      0.940319777      0.347726792      -4.79064882E-04  0.296477884       4.11644578E-07
   0.00000000      0.217241377      0.956899643      0.940184653      0.348192185      -5.52371086E-04  0.296880841       4.84287739E-07
   0.00000000      0.206896558      0.956785262      0.940027177      0.348733366      -6.25138055E-04  0.297349513       3.05473804E-07
   0.00000000      0.196551725      0.956654608      0.939847589      0.349350542      -6.96965319E-04  0.297883958       4.60073352E-07
   0.00000000      0.186206892      0.956507862      0.939645827      0.350043923      -7.67322257E-04  0.298484445       5.47617674E-07
   0.00000000      0.175862074      0.956345022      0.939421773      0.350812912      -8.35396058E-04  0.299150527       3.72529030E-07
   0.00000000      0.165517241      0.956165969      0.939175665      0.351656765      -9.00212151E-04  0.299881458       5.14090061E-07
   0.00000000      0.155172408      0.955971241      0.938907743      0.352574050      -9.60405916E-04  0.300676107       3.72529030E-07
   0.00000000      0.144827589      0.955760956      0.938618779      0.353561312      -1.01457664E-03  0.301531374       5.51342964E-07
   0.00000000      0.134482756      0.955536067      0.938309431      0.354614437      -1.06097152E-03  0.302443922       3.52039933E-07
   0.00000000      0.124137931      0.955297291      0.937981427      0.355726957      -1.09768379E-03  0.303407967       6.63101673E-07
   0.00000000      0.113793105      0.955046654      0.937636793      0.356890172      -1.12284662E-03  0.304416209       5.38304448E-07
   0.00000000      0.103448279      0.954785764      0.937278032      0.358093709      -1.13466673E-03  0.305459470       2.77534127E-07
   0.00000000       9.31034461E-02  0.954517066      0.936908960      0.359324068      -1.13148871E-03  0.306526184       4.60073352E-07
   0.00000000       8.27586204E-02  0.954243660      0.936533093      0.360565484      -1.11215527E-03  0.307602793       2.77534127E-07
   0.00000000       7.24137947E-02  0.953968942      0.936155856      0.361800373      -1.07576710E-03  0.308673948       5.53205609E-07
   0.00000000       6.20689653E-02  0.953696907      0.935782075      0.363009691      -1.02227635E-03  0.309723198       4.19095159E-07
   0.00000000       5.17241396E-02  0.953431785      0.935417891      0.364173651      -9.52416856E-04  0.310733438       4.84287739E-07
   0.00000000       4.13793102E-02  0.953177631      0.935068548      0.365273237      -8.67552240E-04  0.311688125       1.93715096E-07
   0.00000000       3.10344826E-02  0.952938378      0.934740007      0.366291821      -7.68675702E-04  0.312572777       2.25380063E-07
   0.00000000       2.06896551E-02  0.952717066      0.934436083      0.367217213      -6.55458891E-04  0.313376814       1.41561031E-07
   0.00000000       1.03448275E-02  0.952516258      0.934160173      0.368043453      -5.22148679E-04  0.314095020       3.72529030E-09
   1.01942774E-02  -1.06002917E-05  0.952675402      0.934378922      0.368179440      -7.15377217E-04  0.314200789       1.93715096E-07
   2.03885511E-02  -4.05888240E-05  0.953417778      0.935398817      0.367678493      -1.41476304E-03  0.313726097       6.42612576E-07
   3.05827484E-02  -8.74972393E-05  0.954310894      0.936626375      0.366970897      -2.05277628E-03  0.313066185       1.24797225E-06
   4.07768898E-02  -1.49138228E-04  0.955330372      0.938028395      0.366103113      -2.61538685E-03  0.312262118       2.21841037E-06
   5.09709269E-02  -2.23550553E-04  0.956461728      0.939585030      0.365104198      -3.10417823E-03  0.311339527       3.32482159E-06
   6.11648858E-02  -3.08956922E-04  0.957694292      0.941281855      0.363993198      -3.52237024E-03  0.310315311       4.64357436E-06
   7.13587478E-02  -4.03728453E-04  0.959019005      0.943106890      0.362783223      -3.87307652E-03  0.309201151       6.47455454E-06
   8.15525427E-02  -5.06357115E-04  0.960428774      0.945050299      0.361482620      -4.15923027E-03  0.308004647       8.53836536E-06
   9.17462707E-02  -6.15430705E-04  0.961918056      0.947104514      0.360095024      -4.38327296E-03  0.306729347       1.06040388E-05
  0.101939946      -7.29613879E-04  0.963482559      0.949264109      0.358620584      -4.54749353E-03  0.305375725       1.30534172E-05
  0.112133577      -8.47629446E-04  0.965120018      0.951526403      0.357056320      -4.65387013E-03  0.303941369       1.61249191E-05
  0.122327171      -9.68243345E-04  0.966830194      0.953890562      0.355396360      -4.70464304E-03  0.302421629       1.90213323E-05
  0.132520750      -1.09024998E-03  0.968614340      0.956358373      0.353632957      -4.70148632E-03  0.300809920       2.16439366E-05
  0.142714337      -1.21245917E-03  0.970474720      0.958933890      0.351756990      -4.64605726E-03  0.299098581       2.47247517E-05
  0.152907923      -1.33368257E-03  0.972414553      0.961621523      0.349758625      -4.53940034E-03  0.297279298       2.79489905E-05
  0.163101539      -1.45272142E-03  0.974437237      0.964426637      0.347627163      -4.38184477E-03  0.295342892       3.17115337E-05
  0.173295200      -1.56835280E-03  0.976545155      0.967352629      0.345352083      -4.17301105E-03  0.293280751       3.58326361E-05
  0.183488905      -1.67931605E-03  0.978738010      0.970400155      0.342923313      -3.91168660E-03  0.291084468       4.10219654E-05
  0.193682685      -1.78429752E-03  0.981012344      0.973564923      0.340332627      -3.59609094E-03  0.288747728       4.75952402E-05
  0.203876525      -1.88191328E-03  0.983360052      0.976836264      0.337575495      -3.22392955E-03  0.286267519       5.57005405E-05
  0.214070454      -1.97069068E-03  0.985766888      0.980194807      0.334653378      -2.79291719E-03  0.283646375       6.55613840E-05
  0.224264458      -2.04904471E-03  0.988211572      0.983611226      0.331575900      -2.30054744E-03  0.280894101       7.72657804E-05
  0.234458551      -2.11525219E-03  0.990665615      0.987046063      0.328363121      -1.74432388E-03  0.278029770       9.09576192E-05
  0.244652733      -2.16741930E-03  0.993093193      0.990448892      0.325045645      -1.12116092E-03  0.275081813       1.06027117E-04
  0.254846990      -2.20344099E-03  0.995451629      0.993760049      0.321664363      -4.27267834E-04  0.272087544       1.22716418E-04
  0.265041292      -2.22095218E-03  0.997693837      0.996913373      0.318267643       3.42384359E-04  0.269090682       1.40979537E-04
  0.275235593      -2.21726228E-03  0.999771297      0.999839425      0.314907730       1.19454379E-03  0.266138464       1.59694653E-04
  0.285429865      -2.18927371E-03   1.00163734       1.00247169      0.311635226       2.13864050E-03  0.263276398       1.78308575E-04
  0.295624018      -2.13337177E-03   1.00325119       1.00475192      0.308492959       3.18772346E-03  0.260543257       1.96342357E-04
  0.305817962      -2.04527588E-03   1.00458133       1.00663424      0.305510551       4.35956009E-03  0.257966399       2.13030726E-04
  0.316011488      -1.91983546E-03   1.00560856       1.00809145      0.302698672       5.67907514E-03  0.255556822       2.28871824E-04
  0.326204360      -1.75073801E-03   1.00632894       1.00911617      0.300044775       7.18050497E-03  0.253306180       2.42283568E-04
  0.336396307      -1.53008103E-03   1.00675189       1.00972188      0.297511786       8.91195703E-03  0.251185924       2.54052691E-04
  0.346586645      -1.24772848E-03   1.00689995       1.00994134      0.295035928       1.09422952E-02  0.249146298       2.65461858E-04
  0.356774658      -8.90274358E-04   1.00680840       1.00982368      0.292526037       1.33726439E-02  0.247118041       2.76290812E-04
  0.366958946      -4.39326104E-04   1.00652266       1.00943375      0.289862037       1.63769145E-02  0.245014772       2.87503470E-04
  0.377137065       1.33766516E-04   1.00611281       1.00887167      0.286931038       2.07293555E-02  0.242800355       3.00598564E-04
  0.387299746       9.32033930E-04   1.00551140       1.00804281      0.284276754       2.72831619E-02  0.241058424       3.15927668E-04
  0.397434235       2.03104783E-03   1.00452650       1.00668013      0.282511324       3.56808789E-02  0.240404874       3.35190678E-04
  0.407523632       3.48527054E-03   1.00309277       1.00469720      0.281868696       4.58524711E-02  0.241161138       3.63098807E-04
  0.417543113       5.36030158E-03   1.00112724       1.00198507      0.282704651       5.82669117E-02  0.243846625       4.05871193E-04
  0.427456856       7.73026003E-03  0.998397291      0.998234391      0.285862207       7.35588595E-02  0.249488503       4.78455942E-04
  0.437217921       1.06651187E-02  0.994440556      0.992829084      0.292984664       9.23083648E-02  0.259826869       6.08199742E-04
  0.446780443       1.41935814E-02  0.988437414      0.984676182      0.306995809      0.114222616      0.277363956       8.39506276E-04
  0.456144422       1.82216074E-02  0.979152620      0.972112000      0.332169056      0.135889754      0.304414183       1.21059828E-03
  0.465438336       2.24102195E-02  0.965599835      0.953795195      0.371347398      0.147574008      0.339803785       1.70174986E-03
  0.474928796       2.61229333E-02  0.949310124      0.931827605      0.418016464      0.135554403      0.374867469       2.22015381E-03
  0.484786808       2.86871437E-02  0.935174465      0.912910223      0.455042988       9.63558033E-02  0.397873759       2.71330029E-03
  0.494905144       2.98680626E-02  0.926998913      0.902244151      0.470608324       4.50318493E-02  0.404997557       3.25392932E-03
  0.505094886       2.98680626E-02  0.923758745      0.898411214      0.467795670      -4.95020114E-03  0.400920451       3.89871001E-03
  0.515213192       2.86871418E-02  0.922688961      0.897841394      0.450789243      -5.53660803E-02  0.389124453       4.88649681E-03
  0.525071204       2.61229314E-02  0.923841774      0.900633454      0.419130474     -0.103001691      0.369439662       6.24334812E-03
  0.534561634       2.24102195E-02  0.928838730      0.908552885      0.378096133     -0.131893739      0.342191428       7.44598731E-03
  0.543855608       1.82216056E-02  0.937033415      0.920381606      0.338247448     -0.133439675      0.310080141       8.08397122E-03
  0.553219557       1.41935805E-02  0.945145786      0.931718111      0.307002485     -0.116102532      0.279390812       8.25753622E-03
  0.562782109       1.06651178E-02  0.950703442      0.939376414      0.286165416      -9.37008411E-02  0.256018668       8.23531859E-03
  0.572543144       7.73025956E-03  0.953576803      0.943360269      0.273936927      -7.36885369E-02  0.241043776       8.24236870E-03
  0.582456887       5.36030112E-03  0.954589069      0.944912016      0.267645627      -5.76163232E-02  0.232565567       8.40062648E-03
  0.592476368       3.48527008E-03  0.954489946      0.945066273      0.265218467      -4.49260958E-02  0.228474304       8.70924070E-03