 title = "grid"
                                   variables = "x","y","rho","P","u","v","M","S"
 zone n=        3000  e =        5742  et=quadrilateral, f=fepoint
   0.00000000       0.00000000      0.955995321      0.938940823      0.353959739      -4.08846972E-04  0.301855385       3.81842256E-07
   1.00000000       0.00000000      0.945755184      0.932758093      0.286058635       9.99855110E-04  0.243443683       8.47073831E-03
   1.00000000      0.300000012      0.951495588      0.933556378      0.328179598       3.70387977E-04  0.280014783       8.54358077E-04
   0.00000000      0.300000012      0.951960623      0.933398008      0.367656589       1.72383152E-04  0.313801080       6.55651093E-07
   1.00000000       1.03448275E-02  0.946729362      0.932781994      0.291052014       1.79520249E-03  0.247820780       7.05501623E-03
   1.00000000       2.06896551E-02  0.947945774      0.932836950      0.297536731       2.66600819E-03  0.253502876       5.31635992E-03
   1.00000000       3.10344826E-02  0.948829114      0.932883978      0.302698672       3.39989644E-03  0.258020431       4.06276993E-03
   1.00000000       4.13793102E-02  0.949474335      0.932928801      0.306987345       4.03170427E-03  0.261764854       3.15907039E-03
   1.00000000       5.17241396E-02  0.949947894      0.932974637      0.310602784       4.57866956E-03  0.264913112       2.51014158E-03
   1.00000000       6.20689653E-02  0.950297177      0.933023095      0.313651174       5.04873740E-03  0.267560899       2.04739533E-03
   1.00000000       7.24137947E-02  0.950557053      0.933074296      0.316205114       5.44501096E-03  0.269774109       1.71943940E-03
   1.00000000       8.27586204E-02  0.950752974      0.933127999      0.318324834       5.76873124E-03  0.271607071       1.48847140E-03
   1.00000000       9.31034461E-02  0.950902998      0.933183610      0.320064604       6.02066517E-03  0.273108393       1.32722780E-03
   1.00000000      0.103448279      0.951020658      0.933240175      0.321476132       6.20203232E-03  0.274324000       1.21463463E-03
   1.00000000      0.113793105      0.951115131      0.933296621      0.322608858       6.31454121E-03  0.275297403       1.13601610E-03
   1.00000000      0.124137931      0.951192677      0.933352053      0.323508799       6.36061141E-03  0.276068926       1.08130462E-03
   1.00000000      0.134482756      0.951257885      0.933405340      0.324218541       6.34331675E-03  0.276675642       1.04239397E-03
   1.00000000      0.144827589      0.951313019      0.933455765      0.324776322       6.26627309E-03  0.277150720       1.01525709E-03
   1.00000000      0.155172408      0.951360941      0.933502734      0.325214982       6.13329327E-03  0.277522773       9.95049253E-04
   1.00000000      0.165517241      0.951403141      0.933545709      0.325562596       5.94820455E-03  0.277816147       9.79015604E-04
   1.00000000      0.175862074      0.951439857      0.933584511      0.325842947       5.71466051E-03  0.278051317       9.66558233E-04
   1.00000000      0.186206892      0.951471984      0.933618844      0.326075792       5.43626724E-03  0.278245479       9.56013799E-04
   1.00000000      0.196551725      0.951500833      0.933648884      0.326277107       5.11610461E-03  0.278412521       9.45780426E-04
   1.00000000      0.206896558      0.951526463      0.933674753      0.326459885       4.75691864E-03  0.278563708       9.35718417E-04
   1.00000000      0.217241377      0.951550007      0.933696866      0.326634467       4.36110655E-03  0.278708071       9.24799591E-04
   1.00000000      0.227586210      0.951571286      0.933715463      0.326808184       3.93039966E-03  0.278851956       9.13430005E-04
   1.00000000      0.237931028      0.951590776      0.933730841      0.326986343       3.46631394E-03  0.279000044       9.01229680E-04
   1.00000000      0.248275861      0.951608419      0.933743060      0.327171832       2.96988082E-03  0.279154897       8.88343900E-04
   1.00000000      0.258620679      0.951623738      0.933752358      0.327364832       2.44218949E-03  0.279316694       8.75767320E-04
   1.00000000      0.268965513      0.951636016      0.933758378      0.327561855       1.88459666E-03  0.279482543       8.64174217E-04
   1.00000000      0.279310346      0.951642811      0.933760464      0.327757001       1.30021689E-03  0.279647321       8.56390223E-04
   1.00000000      0.289655179      0.951641977      0.933755219      0.327942520       6.97468931E-04  0.279804677       8.52007419E-04
  0.989898980      0.300000012      0.952146590      0.934441507      0.327665001       4.97631147E-04  0.279538989       8.44525173E-04
  0.979797959      0.300000012      0.953642428      0.936479032      0.326694191       5.04883996E-04  0.278625995       8.24918970E-04
  0.969696999      0.300000012      0.955085754      0.938445687      0.325813919       5.05495234E-04  0.277793944       8.05469230E-04
  0.959595978      0.300000012      0.956478059      0.940343499      0.325024307       5.01742121E-04  0.277042627       7.86367804E-04
  0.949494958      0.300000012      0.957825840      0.942181170      0.324316919       4.94430540E-04  0.276364446       7.67342746E-04
  0.939393938      0.300000012      0.959139109      0.943972230      0.323679030       4.83960088E-04  0.275747895       7.48315826E-04
  0.929292917      0.300000012      0.960429847      0.945733011      0.323095560       4.70474071E-04  0.275179446       7.29082152E-04
  0.919191897      0.300000012      0.961710930      0.947481573      0.322550893       4.53968794E-04  0.274644911       7.10085034E-04
  0.909090936      0.300000012      0.962995470      0.949235559      0.322029889       4.34479589E-04  0.274130732       6.90896064E-04
  0.898989916      0.300000012      0.964294910      0.951011240      0.321519852       4.12058114E-04  0.273625314       6.71951100E-04
  0.888888896      0.300000012      0.965619564      0.952822506      0.321011156       3.86714935E-04  0.273119986       6.52870163E-04
  0.878787875      0.300000012      0.966976583      0.954679608      0.320497721       3.58569232E-04  0.272609115       6.33891672E-04
  0.868686855      0.300000012      0.968369901      0.956588328      0.319978029       3.27707385E-04  0.272091180       6.15462661E-04
  0.858585835      0.300000012      0.969800532      0.958550096      0.319454700       2.94259167E-04  0.271568418       5.97329810E-04
  0.848484874      0.300000012      0.971265793      0.960561574      0.318935007       2.58430169E-04  0.271047086       5.79965301E-04
  0.838383853      0.300000012      0.972759545      0.962614477      0.318430215       2.20479342E-04  0.270537168       5.63440844E-04
  0.828282833      0.300000012      0.974272907      0.964696527      0.317954868       1.80725387E-04  0.270051420       5.47610223E-04
  0.818181813      0.300000012      0.975794137      0.966791868      0.317526102       1.39641488E-04  0.269605070       5.33018261E-04
  0.808080792      0.300000012      0.977309883      0.968881845      0.317162663       9.75820440E-05  0.269214690       5.19476831E-04
  0.797979772      0.300000012      0.978805244      0.970945597      0.316883802       5.52184865E-05  0.268897444       5.06811775E-04
  0.787878811      0.300000012      0.980264723      0.972961664      0.316708505       1.31035440E-05  0.268670231       4.95045446E-04
  0.777777791      0.300000012      0.981672704      0.974908292      0.316654503      -2.80352651E-05  0.268548727       4.84357588E-04
  0.767676771      0.300000012      0.983014107      0.976764500      0.316737413      -6.75500851E-05  0.268546999       4.74811532E-04
  0.757575750      0.300000012      0.984275520      0.978510678      0.316970199      -1.04934152E-04  0.268676728       4.65621240E-04
  0.747474730      0.300000012      0.985444546      0.980129957      0.317363352      -1.39622280E-04  0.268947214       4.57286369E-04
  0.737373710      0.300000012      0.986511171      0.981607854      0.317923516      -1.71021617E-04  0.269364715       4.49481886E-04
  0.727272749      0.300000012      0.987468243      0.982933760      0.318654120      -1.98780632E-04  0.269932419       4.41811047E-04
  0.717171729      0.300000012      0.988310635      0.984100878      0.319555253      -2.22710034E-04  0.270650595       4.34673391E-04
  0.707070708      0.300000012      0.989037216      0.985107243      0.320622891      -2.42460941E-04  0.271515846       4.27864026E-04
  0.696969688      0.300000012      0.989649773      0.985955179      0.321849883      -2.57825886E-04  0.272522062       4.21468168E-04
  0.686868668      0.300000012      0.990153790      0.986651838      0.323224753      -2.68357486E-04  0.273659229       4.14977781E-04
  0.676767647      0.300000012      0.990557671      0.987209260      0.324732125      -2.73710233E-04  0.274913877       4.08863649E-04
  0.666666687      0.300000012      0.990873277      0.987643659      0.326352119      -2.73246987E-04  0.276268572       4.02768143E-04
  0.656565666      0.300000012      0.991114855      0.987974942      0.328060627      -2.65974639E-04  0.277702183       3.96872405E-04
  0.646464646      0.300000012      0.991298914      0.988225996      0.329828918      -2.50815006E-04  0.279189438       3.90919857E-04
  0.636363626      0.300000012      0.991443098      0.988421202      0.331624150      -2.26404023E-04  0.280701756       3.84821557E-04
  0.626262605      0.300000012      0.991564751      0.988585413      0.333409786      -1.91454645E-04  0.282207042       3.79222911E-04
  0.616161644      0.300000012      0.991680861      0.988741636      0.335147917      -1.45119484E-04  0.283672422       3.73265240E-04
  0.606060624      0.300000012      0.991806567      0.988911211      0.336800575      -8.69769647E-05  0.285064816       3.67354136E-04
  0.595959604      0.300000012      0.991953552      0.989110291      0.338332534      -1.72331802E-05  0.286353856       3.61152925E-04
  0.585858583      0.300000012      0.992130220      0.989350617      0.339713097       6.28965136E-05  0.287513018       3.54772899E-04
  0.575757563      0.300000012      0.992340386      0.989637673      0.340918690       1.51333472E-04  0.288522094       3.48349102E-04
  0.565656543      0.300000012      0.992583930      0.989971101      0.341934919       2.45142612E-04  0.289368957       3.41620063E-04
  0.555555582      0.300000012      0.992856026      0.990344167      0.342757553       3.40911531E-04  0.290050298       3.34726414E-04
  0.545454562      0.300000012      0.993147790      0.990744352      0.343393058       4.34946705E-04  0.290572166       3.27381073E-04
  0.535353541      0.300000012      0.993446529      0.991154432      0.343858093       5.24370000E-04  0.290949315       3.20105813E-04
  0.525252521      0.300000012      0.993737280      0.991553128      0.344176620       6.08187285E-04  0.291202992       3.12623568E-04
  0.515151501      0.300000012      0.994004726      0.991919339      0.344373703       6.89137902E-04  0.291355282       3.05159250E-04
  0.505050480      0.300000012      0.994234383      0.992233038      0.344469607       7.71886494E-04  0.291424155       2.97917286E-04
  0.494949490      0.300000012      0.994412482      0.992474794      0.344479442       8.59152875E-04  0.291423231       2.90770549E-04
  0.484848499      0.300000012      0.994525015      0.992625296      0.344418794       9.50875343E-04  0.291366518       2.84045236E-04
  0.474747479      0.300000012      0.994559348      0.992666006      0.344301671       1.04974711E-03  0.291266739       2.76669860E-04
  0.464646459      0.300000012      0.994504690      0.992582560      0.344132513       1.16108533E-03  0.291128218       2.69579934E-04
  0.454545468      0.300000012      0.994351208      0.992360711      0.343910336       1.28433807E-03  0.290950656       2.62087211E-04
  0.444444448      0.300000012      0.994088471      0.991985559      0.343640417       1.41302566E-03  0.290739298       2.53954437E-04
  0.434343427      0.300000012      0.993704259      0.991440117      0.343339473       1.53970229E-03  0.290508866       2.45142030E-04
  0.424242437      0.300000012      0.993184865      0.990705431      0.343033552       1.65900937E-03  0.290282249       2.35853484E-04
  0.414141417      0.300000012      0.992516935      0.989763021      0.342752397       1.76816096E-03  0.290085226       2.25977041E-04
  0.404040396      0.300000012      0.991688907      0.988597214      0.342526048       1.86609093E-03  0.289943933       2.15831213E-04
  0.393939406      0.300000012      0.990691006      0.987194300      0.342382938       1.95230101E-03  0.289883137       2.05250923E-04
  0.383838385      0.300000012      0.989514172      0.985542357      0.342349678       2.02619261E-03  0.289925784       1.94506254E-04
  0.373737365      0.300000012      0.988151848      0.983632863      0.342450589       2.08712905E-03  0.290093064       1.83905941E-04
  0.363636374      0.300000012      0.986599922      0.981460512      0.342707396       2.13454245E-03  0.290403605       1.73447654E-04
  0.353535354      0.300000012      0.984857082      0.979024470      0.343138158       2.16838252E-03  0.290873080       1.63562596E-04
  0.343434334      0.300000012      0.982926786      0.976329863      0.343755424       2.18920759E-03  0.291512132       1.54160894E-04
  0.333333343      0.300000012      0.980816662      0.973387659      0.344565779       2.19659903E-03  0.292326331       1.44733116E-04
  0.323232323      0.300000012      0.978539050      0.970216036      0.345570803       2.19008536E-03  0.293316573       1.35942362E-04
  0.313131303      0.300000012      0.976111591      0.966839731      0.346766084       2.16939161E-03  0.294478506       1.27167441E-04
  0.303030312      0.300000012      0.973557234      0.963291228      0.348141581       2.13454268E-03  0.295802593       1.18639320E-04
  0.292929292      0.300000012      0.970904648      0.959610403      0.349681288       2.08585057E-03  0.297273993       1.09944493E-04
  0.282828271      0.300000012      0.968186796      0.955843210      0.351364046       2.02380703E-03  0.298873037       1.00923702E-04
  0.272727281      0.300000012      0.965440214      0.952040493      0.353163779       1.94946362E-03  0.300575614       9.17892903E-05
  0.262626261      0.300000012      0.962704182      0.948256731      0.355050206       1.86449464E-03  0.302353650       8.27610493E-05
  0.252525240      0.300000012      0.960018933      0.944547594      0.356989801       1.77083001E-03  0.304176092       7.39693642E-05
  0.242424250      0.300000012      0.957424581      0.940967500      0.358946353       1.67102704E-03  0.306009710       6.49802387E-05
  0.232323229      0.300000012      0.954958618      0.937567949      0.360882640       1.56764919E-03  0.307820082       5.61699271E-05
  0.222222224      0.300000012      0.952654898      0.934395373      0.362761170       1.46334071E-03  0.309572786       4.79407609E-05
  0.212121218      0.300000012      0.950542986      0.931489527      0.364546478       1.36048254E-03  0.311235249       4.03355807E-05
  0.202020198      0.300000012      0.948646486      0.928881884      0.366206288       1.26086175E-03  0.312778115       3.30246985E-05
  0.191919193      0.300000012      0.946982384      0.926595747      0.367713600       1.16580841E-03  0.314176470       2.67960131E-05
  0.181818187      0.300000012      0.945562363      0.924646318      0.369047195       1.07594940E-03  0.315411121       2.16066837E-05
  0.171717167      0.300000012      0.944391489      0.923039556      0.370193601       9.91288805E-04  0.316469818       1.71251595E-05
  0.161616161      0.300000012      0.943468988      0.921774507      0.371145904       9.11591167E-04  0.317346334       1.38096511E-05
  0.151515156      0.300000012      0.942789853      0.920843661      0.371904522       8.36363470E-04  0.318040937       1.15893781E-05
  0.141414136      0.300000012      0.942345321      0.920234025      0.372475535       7.64988887E-04  0.318559498       9.65967774E-06
  0.131313130      0.300000012      0.942122698      0.919928491      0.372869849       6.97094365E-04  0.318911880       8.32229853E-06
  0.121212125      0.300000012      0.942107618      0.919907153      0.373101413       6.32565701E-04  0.319110990       7.51391053E-06
  0.111111112      0.300000012      0.942283690      0.920147538      0.373185307       5.71568904E-04  0.319170743       7.17490911E-06
  0.101010099      0.300000012      0.942634404      0.920626760      0.373136342       5.14741347E-04  0.319105148       6.88433647E-06
   9.09090936E-02  0.300000012      0.943142891      0.921321929      0.372967184       4.62905416E-04  0.318926036       6.70552254E-06
   8.08080807E-02  0.300000012      0.943792522      0.922210157      0.372687817       4.16879106E-04  0.318643302       6.37397170E-06
   7.07070678E-02  0.300000012      0.944567382      0.923270047      0.372305810       3.77304124E-04  0.318264484       6.03869557E-06
   6.06060624E-02  0.300000012      0.945452273      0.924481153      0.371827096       3.44037107E-04  0.317795664       6.02006912E-06
   5.05050495E-02  0.300000012      0.946433544      0.925824106      0.371257156       3.16453545E-04  0.317242831       5.31040132E-06
   4.04040404E-02  0.300000012      0.947497785      0.927281320      0.370602578       2.93090998E-04  0.316612393       4.68268991E-06
   3.03030312E-02  0.300000012      0.948632717      0.928836167      0.369872689       2.72184698E-04  0.315913260       4.13693488E-06
   2.02020202E-02  0.300000012      0.949826241      0.930471539      0.369081080       2.50959798E-04  0.315158069       2.90758908E-06
   1.01010101E-02  0.300000012      0.951060951      0.932164252      0.368253350       2.21769602E-04  0.314369708       1.70990825E-06
   0.00000000      0.289655179      0.952049792      0.933520377      0.367516130       1.57290589E-04  0.313675314       6.42612576E-07
   0.00000000      0.279310346      0.952098846      0.933587790      0.367346317       1.70515865E-04  0.313527167       6.92903996E-07
   0.00000000      0.268965513      0.952160656      0.933672488      0.367144614       1.93117914E-04  0.313350976       5.73694706E-07
   0.00000000      0.258620679      0.952237189      0.933777452      0.366901755       2.20136470E-04  0.313138694       4.52622771E-07
   0.00000000      0.248275861      0.952329218      0.933903813      0.366612822       2.50561599E-04  0.312886089       4.48897481E-07
   0.00000000      0.237931028      0.952437878      0.934052885      0.366273999       2.83886970E-04  0.312589794       3.35276127E-07
   0.00000000      0.227586210      0.952563524      0.934225380      0.365881920       3.19809129E-04  0.312246978       3.27825546E-07
   0.00000000      0.217241377      0.952706575      0.934421837      0.365433812       3.57963698E-04  0.311855227       3.72529030E-07
   0.00000000      0.206896558      0.952867329      0.934642553      0.364927083       3.97690164E-04  0.311412305       3.33413482E-07
   0.00000000      0.196551725      0.953045368      0.934887171      0.364360452       4.38071991E-04  0.310917199       4.65661287E-07
   0.00000000      0.186206892      0.953240335      0.935154736      0.363733917       4.77820839E-04  0.310369909       2.40281224E-07
   0.00000000      0.175862074      0.953450859      0.935443938      0.363049299       5.15437161E-04  0.309772104       3.16649675E-07
   0.00000000      0.165517241      0.953675330      0.935752153      0.362310141       5.49219141E-04  0.309126943       1.17346644E-07
   0.00000000      0.155172408      0.953911304      0.936076283      0.361522675       5.77182043E-04  0.308439821       1.15483999E-07
   0.00000000      0.144827589      0.954155743      0.936412156      0.360695332       5.97179227E-04  0.307718247       1.52736902E-07
   0.00000000      0.134482756      0.954405248      0.936754942      0.359839290       6.06960035E-04  0.306971878       7.82310963E-08
   0.00000000      0.124137931      0.954655230      0.937098742      0.358968377       6.04809728E-04  0.306212872       3.72529030E-07
   0.00000000      0.113793105      0.954901516      0.937437117      0.358098447       5.88662981E-04  0.305454969       3.07336450E-07
   0.00000000      0.103448279      0.955139220      0.937763751      0.357247770       5.57034451E-04  0.304714173       1.80676579E-07
   0.00000000       9.31034461E-02  0.955363095      0.938071489      0.356436074       5.08754922E-04  0.304007530       2.45869160E-07
   0.00000000       8.27586204E-02  0.955567896      0.938353121      0.355684042       4.43203375E-04  0.303353012       3.37138772E-07
   0.00000000       7.24137947E-02  0.955748737      0.938601613      0.355013132       3.60387377E-04  0.302769333       1.32247806E-07
   0.00000000       6.20689653E-02  0.955900609      0.938810408      0.354444325       2.60785862E-04  0.302274555       1.22934580E-07
   0.00000000       5.17241396E-02  0.956019104      0.938973248      0.353998393       1.45945771E-04  0.301886708       7.82310963E-08
   0.00000000       4.13793102E-02  0.956099927      0.939084470      0.353694499       1.85009267E-05  0.301622421       1.09896064E-07
   0.00000000       3.10344826E-02  0.956139803      0.939139485      0.353549898      -1.16830284E-04  0.301496595       2.94297934E-07
   0.00000000       2.06896551E-02  0.956136465      0.939134717      0.353579313      -2.51489284E-04  0.301521927       1.13621354E-07
   0.00000000       1.03448275E-02  0.956088603      0.939069033      0.353794187      -3.68432782E-04  0.301708251       3.11061740E-07
   1.01942774E-02  -1.06002917E-05  0.956282139      0.939335465      0.353706777      -5.99606545E-04  0.301621765       5.94183803E-07
   2.03885511E-02  -4.05888240E-05  0.956933260      0.940231621      0.353093773      -1.13745511E-03  0.301059067       1.22562051E-06
   3.05827484E-02  -8.74972393E-05  0.957588851      0.941134393      0.352358341      -1.61561451E-03  0.300392300       2.10478902E-06
   4.07768898E-02  -1.49138228E-04  0.958252907      0.942048609      0.351507008      -2.02472764E-03  0.299626768       2.54996121E-06
   5.09709269E-02  -2.23550553E-04  0.958934009      0.942986906      0.350532532      -2.36774702E-03  0.298755378       3.31178308E-06
   6.11648858E-02  -3.08956922E-04  0.959641516      0.943962216      0.349423230      -2.64934497E-03  0.297767639       4.53926623E-06
   7.13587478E-02  -4.03728453E-04  0.960383892      0.944985926      0.348168790      -2.87394132E-03  0.296654135       5.84870577E-06
   8.15525427E-02  -5.06357115E-04  0.961166680      0.946066022      0.346763611      -3.04597733E-03  0.295409799       7.47665763E-06
   9.17462707E-02  -6.15430705E-04  0.961991787      0.947204888      0.345208138      -3.16859176E-03  0.294034988       9.23313200E-06
  0.101939946      -7.29613879E-04  0.962856293      0.948398829      0.343510032      -3.24434461E-03  0.292536467       1.13882124E-05
  0.112133577      -8.47629446E-04  0.963751256      0.949635565      0.341684461      -3.27473111E-03  0.290927768       1.39176846E-05
  0.122327171      -9.68243345E-04  0.964662015      0.950894773      0.339754283      -3.26099037E-03  0.289229304       1.66241080E-05
  0.132520750      -1.09024998E-03  0.965567112      0.952147245      0.337749481      -3.20352777E-03  0.287467927       1.99452043E-05
  0.142714337      -1.21245917E-03  0.966439962      0.953355551      0.335706323      -3.10282665E-03  0.285676181       2.31750309E-05
  0.152907923      -1.33368257E-03  0.967248976      0.954476893      0.333666086      -2.95928423E-03  0.283890963       2.71946192E-05
  0.163101539      -1.45272142E-03  0.967960775      0.955464005      0.331672966      -2.77353521E-03  0.282151878       3.09888273E-05
  0.173295200      -1.56835280E-03  0.968541145      0.956269860      0.329771787      -2.54623429E-03  0.280498952       3.49171460E-05
  0.183488905      -1.67931605E-03  0.968958676      0.956851125      0.328004360      -2.27791793E-03  0.278969347       3.92124057E-05
  0.193682685      -1.78429752E-03  0.969187260      0.957171082      0.326406896      -1.96891604E-03  0.277595371       4.32971865E-05
  0.203876525      -1.88191328E-03  0.969207108      0.957203031      0.325006843      -1.61879091E-03  0.276401341       4.79444861E-05
  0.214070454      -1.97069068E-03  0.969007194      0.956931889      0.323820382      -1.22615881E-03  0.275401473       5.34486026E-05
  0.224264458      -2.04904471E-03  0.968585312      0.956355214      0.322851568      -7.88121833E-04  0.274599344       6.03199005E-05
  0.234458551      -2.11525219E-03  0.967948258      0.955482066      0.322091907      -3.00592103E-04  0.273987532       6.79809600E-05
  0.244652733      -2.16741930E-03  0.967109680      0.954331994      0.321521521       2.42261405E-04  0.273548454       7.70147890E-05
  0.254846990      -2.20344099E-03  0.966089070      0.952932775      0.321111321       8.47886142E-04  0.273256540       8.80006701E-05
  0.265041292      -2.22095218E-03  0.964910507      0.951318085      0.320824802       1.52557075E-03  0.273079723       1.01082027E-04
  0.275235593      -2.21726228E-03  0.963601530      0.949525893      0.320620745       2.28675664E-03  0.272982001       1.15925446E-04
  0.285429865      -2.18927371E-03  0.962190807      0.947595894      0.320455253       3.14545468E-03  0.272924989       1.32352114E-04
  0.295624018      -2.13337177E-03  0.960708559      0.945569634      0.320281923       4.11954522E-03  0.272868514       1.50090083E-04
  0.305817962      -2.04527588E-03  0.959184885      0.943488419      0.320052624       5.23164589E-03  0.272771060       1.68794766E-04
  0.316011488      -1.91983546E-03  0.957649887      0.941393495      0.319716096       6.51152898E-03  0.272588998       1.88201666E-04
  0.326204360      -1.75073801E-03  0.956134498      0.939326882      0.319216311       7.99860433E-03  0.272275448       2.07610428E-04
  0.336396307      -1.53008103E-03  0.954670131      0.937331259      0.318488598       9.74657387E-03  0.271777362       2.26689503E-04
  0.346586645      -1.24772848E-03  0.953289330      0.935450613      0.317456603       1.18309483E-02  0.271033943       2.44602561E-04
  0.356774658      -8.90274358E-04  0.952027142      0.933732748      0.316025347       1.43618323E-02  0.269972354       2.61425972E-04
  0.366958946      -4.39326104E-04  0.950922489      0.932231247      0.314074159       1.75273865E-02  0.268506110       2.77467072E-04
  0.377137065       1.33766516E-04  0.950036824      0.931031287      0.311492175       2.21593566E-02  0.266604424       2.93958932E-04
  0.387299746       9.32033930E-04  0.949270427      0.929995120      0.308889061       2.91843209E-02  0.264925033       3.10238451E-04
  0.397434235       2.03104783E-03  0.948381126      0.928792119      0.306963474       3.82135138E-02  0.264176577       3.28006223E-04
  0.407523632       3.48527054E-03  0.947272837      0.927294552      0.305996150       4.91458848E-02  0.264734805       3.51335853E-04
  0.417543113       5.36030158E-03  0.945834875      0.925359011      0.306392133       6.24557324E-02  0.267181635       3.88670713E-04
  0.427456856       7.73026003E-03  0.943795919      0.922629416      0.309083879       7.87900761E-02  0.272652060       4.55867499E-04
  0.437217921       1.06651187E-02  0.940642655      0.918435216      0.315872997       9.87298638E-02  0.283059269       5.84822148E-04
  0.446780443       1.41935814E-02  0.935480058      0.911606133      0.329935670      0.121928193      0.301145703       8.26377422E-04
  0.456144422       1.82216074E-02  0.926961422      0.900363028      0.355914950      0.144751132      0.329490483       1.22345984E-03
  0.465438336       2.24102195E-02  0.914018452      0.883282721      0.396932811      0.156895891      0.366947889       1.75638124E-03
  0.474928796       2.61229333E-02  0.898355067      0.862654090      0.446016312      0.143803716      0.404173434       2.32435390E-03
  0.484786808       2.86871437E-02  0.885390341      0.845737994      0.484569371      0.101717904      0.428158879       2.87169218E-03
  0.494905144       2.98680626E-02  0.879289091      0.838111341      0.499656320       4.67481576E-02  0.434425086       3.49386036E-03
  0.505094886       2.98680626E-02  0.878749669      0.838023126      0.494780123      -6.52576610E-03  0.428243309       4.24771756E-03
  0.515213192       2.86871418E-02  0.880544484      0.841386676      0.474874437      -5.97937964E-02  0.413817018       5.39678335E-03
  0.525071204       2.61229314E-02  0.884606361      0.848165870      0.439662576     -0.109721541      0.391119540       6.97846338E-03
  0.534561634       2.24102195E-02  0.892482579      0.860006392      0.394896507     -0.139757320      0.360655934       8.43216479E-03
  0.543855608       1.82216056E-02  0.903387487      0.875520289      0.351767778     -0.141070902      0.325371861       9.30825621E-03
  0.553219557       1.41935805E-02  0.913959742      0.890196741      0.317910910     -0.122581951      0.291783541       9.64351371E-03
  0.562782109       1.06651178E-02  0.921785593      0.900848329      0.294946492      -9.87654850E-02  0.265917093       9.60126519E-03
  0.572543144       7.73025956E-03  0.926889479      0.907595694      0.280695498      -7.74221867E-02  0.248691589       9.33307037E-03
  0.582456887       5.36030112E-03  0.930197537      0.911814749      0.272150755      -6.01995811E-02  0.237932041       8.98323022E-03
  0.592476368       3.48527008E-03  0.932442188      0.914622545      0.267095298      -4.65815738E-02  0.231365427       8.68353061E-03