 title = "grid"
                                   variables = "x","y","rho","P","u","v","M","S"
 zone n=        3000  e =        5742  et=quadrilateral, f=fepoint
   0.00000000       0.00000000      0.956356168      0.939436972      0.351210386      -2.01191579E-04  0.299488008       2.70083547E-07
   1.00000000       0.00000000      0.947418928      0.934336126      0.307269067       8.48281023E-04  0.261502564       7.70042092E-03
   1.00000000      0.300000012      0.950581372      0.932155550      0.348955691      -9.16995195E-05  0.297821969       6.98549673E-04
   0.00000000      0.300000012      0.962055266      0.947286725      0.332225889      -3.91294481E-04  0.282962590       3.23913991E-06
   1.00000000       1.03448275E-02  0.948330641      0.934225798      0.312275916       9.51261318E-04  0.265907407       6.23578392E-03
   1.00000000       2.06896551E-02  0.949510157      0.934243619      0.318543255       1.02149893E-03  0.271410316       4.51459736E-03
   1.00000000       3.10344826E-02  0.950291812      0.934237301      0.323483735       1.03500194E-03  0.275734156       3.35585698E-03
   1.00000000       4.13793102E-02  0.950812340      0.934211791      0.327559799       1.01025915E-03  0.279288679       2.56188028E-03
   1.00000000       5.17241396E-02  0.951155603      0.934169590      0.330959082       9.56173288E-04  0.282244176       2.01140344E-03
   1.00000000       6.20689653E-02  0.951373875      0.934112310      0.333782792       8.77483923E-04  0.284693480       1.62881054E-03
   1.00000000       7.24137947E-02  0.951502383      0.934040844      0.336107254       7.77494162E-04  0.286706179       1.36319734E-03
   1.00000000       8.27586204E-02  0.951565742      0.933956683      0.338001341       6.59924350E-04  0.288344234       1.17990747E-03
   1.00000000       9.31034461E-02  0.951581061      0.933860362      0.339531273       5.29080105E-04  0.289666474       1.05417334E-03
   1.00000000      0.103448279      0.951561689      0.933753550      0.340759903       3.89961409E-04  0.290728122       9.68294218E-04
   1.00000000      0.113793105      0.951517403      0.933637679      0.341747075       2.47777556E-04  0.291581571       9.09417868E-04
   1.00000000      0.124137931      0.951455116      0.933514655      0.342546731       1.08179775E-04  0.292273492       8.69259238E-04
   1.00000000      0.134482756      0.951380908      0.933386564      0.343207270      -2.35745283E-05  0.292845756       8.41222703E-04
   1.00000000      0.144827589      0.951299191      0.933255434      0.343768686      -1.42427947E-04  0.293332815       8.20953399E-04
   1.00000000      0.155172408      0.951213062      0.933123410      0.344263613      -2.44376919E-04  0.293762624       8.06262717E-04
   1.00000000      0.165517241      0.951125443      0.932992399      0.344716489      -3.26151232E-04  0.294156253       7.94798136E-04
   1.00000000      0.175862074      0.951039314      0.932864726      0.345144778      -3.85677471E-04  0.294528604       7.84717500E-04
   1.00000000      0.186206892      0.950956047      0.932742178      0.345560938      -4.21895296E-04  0.294890225       7.75929540E-04
   1.00000000      0.196551725      0.950877428      0.932626307      0.345971882      -4.35028662E-04  0.295247048       7.67430291E-04
   1.00000000      0.206896558      0.950805366      0.932518601      0.346379936      -4.26241168E-04  0.295601130       7.58066773E-04
   1.00000000      0.217241377      0.950740278      0.932420671      0.346784443      -3.97741533E-04  0.295951754       7.48855993E-04
   1.00000000      0.227586210      0.950683177      0.932333410      0.347181231      -3.52979929E-04  0.296295285       7.39408657E-04
   1.00000000      0.237931028      0.950634718      0.932257771      0.347564131      -2.96328100E-04  0.296626478       7.29657710E-04
   1.00000000      0.248275861      0.950595379      0.932194829      0.347925574      -2.33253348E-04  0.296938807       7.20078126E-04
   1.00000000      0.258620679      0.950565338      0.932145059      0.348255157      -1.70267318E-04  0.297223270       7.10884109E-04
   1.00000000      0.268965513      0.950544298      0.932109118      0.348540813      -1.15333431E-04  0.297469497       7.03329220E-04
   1.00000000      0.279310346      0.950532436      0.932088137      0.348767608      -7.83440191E-05  0.297664523       6.98290765E-04
   1.00000000      0.289655179      0.950530589      0.932083249      0.348913670      -7.30390602E-05  0.297789723       6.95792958E-04
  0.989898980      0.300000012      0.950357974      0.931840062      0.348998785      -8.55667240E-05  0.297874153       6.89113513E-04
  0.979797959      0.300000012      0.949851692      0.931127489      0.349131256      -1.13008449E-04  0.298021823       6.70142472E-04
  0.969696999      0.300000012      0.949381053      0.930464506      0.349261731      -1.37881085E-04  0.298165500       6.51719049E-04
  0.959595978      0.300000012      0.948950589      0.929856837      0.349379331      -1.61775853E-04  0.298295707       6.33312389E-04
  0.949494958      0.300000012      0.948564112      0.929310143      0.349476516      -1.85213605E-04  0.298405677       6.15524128E-04
  0.939393938      0.300000012      0.948225915      0.928830087      0.349547207      -2.08446072E-04  0.298489898       5.98007813E-04
  0.929292917      0.300000012      0.947940528      0.928423345      0.349584907      -2.31222017E-04  0.298542589       5.81433997E-04
  0.919191897      0.300000012      0.947713673      0.928097785      0.349582672      -2.53171980E-04  0.298557281       5.65797091E-04
  0.909090936      0.300000012      0.947552264      0.927862465      0.349532485      -2.73826852E-04  0.298526883       5.50657511E-04
  0.898989916      0.300000012      0.947463453      0.927727818      0.349425554      -2.92952958E-04  0.298443228       5.36780804E-04
  0.888888896      0.300000012      0.947454631      0.927703917      0.349252880      -3.10193573E-04  0.298298270       5.24075702E-04
  0.878787875      0.300000012      0.947532713      0.927799821      0.349006355      -3.25351371E-04  0.298084557       5.12044877E-04
  0.868686855      0.300000012      0.947702885      0.928022623      0.348679572      -3.38353449E-04  0.297796428       5.00794500E-04
  0.858585835      0.300000012      0.947967708      0.928375959      0.348269254      -3.49261012E-04  0.297430962       4.90317121E-04
  0.848484874      0.300000012      0.948326170      0.928858697      0.347775936      -3.58329096E-04  0.296988606       4.80813906E-04
  0.838383853      0.300000012      0.948773682      0.929463983      0.347204775      -3.65794986E-04  0.296474218       4.71798703E-04
  0.828282833      0.300000012      0.949301779      0.930180848      0.346565396      -3.72003618E-04  0.295896530       4.63725999E-04
  0.818181813      0.300000012      0.949898720      0.930992663      0.345871568      -3.77324875E-04  0.295268178       4.55979258E-04
  0.808080792      0.300000012      0.950549424      0.931878865      0.345140666      -3.82131519E-04  0.294604927       4.48696315E-04
  0.797979772      0.300000012      0.951237142      0.932816327      0.344392955      -3.86799918E-04  0.293925196       4.41653654E-04
  0.787878811      0.300000012      0.951943636      0.933780253      0.343650162      -3.91654758E-04  0.293248713       4.35048714E-04
  0.777777791      0.300000012      0.952650964      0.934745848      0.342933893      -3.96929914E-04  0.292594939       4.28721309E-04
  0.767676771      0.300000012      0.953341663      0.935689211      0.342265397      -4.02846548E-04  0.291983128       4.22762707E-04
  0.757575750      0.300000012      0.954000235      0.936588883      0.341664106      -4.09511791E-04  0.291430771       4.17063013E-04
  0.747474730      0.300000012      0.954613209      0.937426388      0.341146916      -4.16927272E-04  0.290953070       4.11638990E-04
  0.737373710      0.300000012      0.955169737      0.938186884      0.340727001      -4.24887927E-04  0.290561765       4.06572595E-04
  0.727272749      0.300000012      0.955662072      0.938859046      0.340413660      -4.33240173E-04  0.290265381       4.01360914E-04
  0.717171729      0.300000012      0.956084788      0.939435422      0.340212375      -4.41561395E-04  0.290068895       3.95976007E-04
  0.707070708      0.300000012      0.956435204      0.939912558      0.340124339      -4.49534040E-04  0.289973378       3.90728936E-04
  0.696969688      0.300000012      0.956712782      0.940289557      0.340147018      -4.56730340E-04  0.289976627       3.85452062E-04
  0.686868668      0.300000012      0.956919372      0.940568388      0.340274781      -4.62993514E-04  0.290073901       3.79687175E-04
  0.676767647      0.300000012      0.957057416      0.940752804      0.340500176      -4.68342128E-04  0.290258527       3.73765826E-04
  0.666666687      0.300000012      0.957130849      0.940848112      0.340814650      -4.72967018E-04  0.290523022       3.67710367E-04
  0.656565666      0.300000012      0.957143724      0.940859616      0.341209799      -4.77453403E-04  0.290860027       3.61034647E-04
  0.646464646      0.300000012      0.957100213      0.940793157      0.341678351      -4.82316158E-04  0.291263103       3.54060903E-04
  0.636363626      0.300000012      0.957003653      0.940653443      0.342215061      -4.88369085E-04  0.291727632       3.46826389E-04
  0.626262605      0.300000012      0.956857264      0.940445065      0.342816234      -4.96144115E-04  0.292250127       3.39424238E-04
  0.616161644      0.300000012      0.956663549      0.940171659      0.343480229      -5.06023993E-04  0.292829096       3.32105905E-04
  0.606060624      0.300000012      0.956424177      0.939835370      0.344206005      -5.17679437E-04  0.293463647       3.24739143E-04
  0.595959604      0.300000012      0.956140816      0.939438641      0.344992489      -5.30732621E-04  0.294152707       3.17320228E-04
  0.585858583      0.300000012      0.955814838      0.938983560      0.345838189      -5.44440525E-04  0.294894934       3.10176983E-04
  0.575757563      0.300000012      0.955447614      0.938471437      0.346739173      -5.57529798E-04  0.295687109       3.02601606E-04
  0.565656543      0.300000012      0.955040932      0.937905073      0.347688138      -5.68345888E-04  0.296522707       2.94961035E-04
  0.555555582      0.300000012      0.954597235      0.937287629      0.348673165      -5.75250830E-04  0.297391623       2.87037343E-04
  0.545454562      0.300000012      0.954119980      0.936624289      0.349678457      -5.77144790E-04  0.298280090       2.79113650E-04
  0.535353541      0.300000012      0.953613937      0.935921252      0.350685090      -5.73862402E-04  0.299171716       2.70951539E-04
  0.525252521      0.300000012      0.953084946      0.935186505      0.351673931      -5.66887029E-04  0.300049841       2.62476504E-04
  0.515151501      0.300000012      0.952539623      0.934428990      0.352628320      -5.59440290E-04  0.300899923       2.53371894E-04
  0.505050480      0.300000012      0.951985121      0.933659017      0.353537470      -5.55308710E-04  0.301712215       2.44259834E-04
  0.494949490      0.300000012      0.951431572      0.932890475      0.354393333      -5.55563660E-04  0.302479208       2.35065818E-04
  0.484848499      0.300000012      0.950891912      0.932140887      0.355186254      -5.59083826E-04  0.303191781       2.25504860E-04
  0.474747479      0.300000012      0.950379312      0.931428850      0.355906397      -5.66870149E-04  0.303840727       2.16253102E-04
  0.464646459      0.300000012      0.949907243      0.930772543      0.356547475      -5.80944645E-04  0.304419696       2.06978992E-04
  0.454545468      0.300000012      0.949489295      0.930190980      0.357104868      -6.00439787E-04  0.304923803       1.98068097E-04
  0.444444448      0.300000012      0.949139595      0.929703355      0.357571363      -6.22112129E-04  0.305345982       1.89397484E-04
  0.434343427      0.300000012      0.948872328      0.929328978      0.357936054      -6.43170497E-04  0.305675954       1.80963427E-04
  0.424242437      0.300000012      0.948699951      0.929085016      0.358187407      -6.62546488E-04  0.305902988       1.72743574E-04
  0.414141417      0.300000012      0.948633194      0.928986371      0.358315349      -6.80181605E-04  0.306017786       1.65114179E-04
  0.404040396      0.300000012      0.948680818      0.929044485      0.358312786      -6.96622359E-04  0.306013763       1.57387927E-04
  0.393939406      0.300000012      0.948848724      0.929267824      0.358175844      -7.12186855E-04  0.305887103       1.49944797E-04
  0.383838385      0.300000012      0.949140072      0.929660738      0.357903689      -7.27245118E-04  0.305637002       1.42902136E-04
  0.373737365      0.300000012      0.949555874      0.930224359      0.357498109      -7.41929573E-04  0.305265039       1.35757029E-04
  0.363636374      0.300000012      0.950094700      0.930956483      0.356963336      -7.56363152E-04  0.304775029       1.28278509E-04
  0.353535354      0.300000012      0.950752735      0.931852102      0.356305838      -7.70763552E-04  0.304172695       1.20608136E-04
  0.343434334      0.300000012      0.951524198      0.932903588      0.355534166      -7.85508833E-04  0.303465933       1.12842768E-04
  0.333333343      0.300000012      0.952401638      0.934101224      0.354657799      -8.00310983E-04  0.302663267       1.05394050E-04
  0.323232323      0.300000012      0.953377068      0.935433805      0.353686601      -8.14921397E-04  0.301773816       9.77776945E-05
  0.313131303      0.300000012      0.954441786      0.936889231      0.352630079      -8.28772900E-04  0.300806433       8.98130238E-05
  0.303030312      0.300000012      0.955585897      0.938454688      0.351497054      -8.41481960E-04  0.299769282       8.21240246E-05
  0.292929292      0.300000012      0.956799269      0.940116704      0.350295067      -8.52542580E-04  0.298669457       7.50869513E-05
  0.282828271      0.300000012      0.958072364      0.941862166      0.349030733      -8.61682463E-04  0.297513366       6.83926046E-05
  0.272727281      0.300000012      0.959395111      0.943677068      0.347710073      -8.68721923E-04  0.296306819       6.19310886E-05
  0.262626261      0.300000012      0.960757315      0.945548594      0.346338719      -8.73549259E-04  0.295055240       5.68237156E-05
  0.252525240      0.300000012      0.962148845      0.947461903      0.344922990      -8.76479317E-04  0.293764800       5.19845635E-05
  0.242424250      0.300000012      0.963559151      0.949402750      0.343469471      -8.77709710E-04  0.292441845       4.78029251E-05
  0.232323229      0.300000012      0.964977264      0.951355875      0.341986239      -8.77767045E-04  0.291093886       4.39733267E-05
  0.222222224      0.300000012      0.966391265      0.953305066      0.340482801      -8.76919192E-04  0.289729804       4.08049673E-05
  0.212121218      0.300000012      0.967788517      0.955232918      0.338969797      -8.75405211E-04  0.288359344       3.82997096E-05
  0.202020198      0.300000012      0.969155610      0.957120538      0.337459356      -8.73433833E-04  0.286993712       3.62005085E-05
  0.191919193      0.300000012      0.970477581      0.958946645      0.335964710      -8.70780146E-04  0.285645008       3.39299440E-05
  0.181818187      0.300000012      0.971738040      0.960689187      0.334499806      -8.67089897E-04  0.284325927       3.22964042E-05
  0.171717167      0.300000012      0.972918808      0.962322354      0.333079308      -8.62070243E-04  0.283050001       3.07466835E-05
  0.161616161      0.300000012      0.973999918      0.963818491      0.331718802      -8.55193415E-04  0.281831384       2.93748453E-05
  0.151515156      0.300000012      0.974959552      0.965147138      0.330434829      -8.46016512E-04  0.280685365       2.83084810E-05
  0.141414136      0.300000012      0.975774288      0.966275275      0.329245269      -8.34324048E-04  0.279628307       2.70195305E-05
  0.131313130      0.300000012      0.976418972      0.967167795      0.328169644      -8.20075220E-04  0.278678149       2.56672502E-05
  0.121212125      0.300000012      0.976867616      0.967788815      0.327229172      -8.03452334E-04  0.277854145       2.44006515E-05
  0.111111112      0.300000012      0.977094114      0.968101561      0.326446861      -7.84684438E-04  0.277177185       2.29282305E-05
  0.101010099      0.300000012      0.977073014      0.968070745      0.325846225      -7.64128636E-04  0.276668578       2.13440508E-05
   9.09090936E-02  0.300000012      0.976781070      0.967664838      0.325450599      -7.41937314E-04  0.276349276       2.03037634E-05
   8.08080807E-02  0.300000012      0.976199329      0.966856897      0.325281411      -7.18341733E-04  0.276238650       1.91340223E-05
   7.07070678E-02  0.300000012      0.975313485      0.965627968      0.325356722      -6.93341543E-04  0.276352853       1.82269141E-05
   6.06060624E-02  0.300000012      0.974117100      0.963969529      0.325688958      -6.67069980E-04  0.276703000       1.76308677E-05
   5.05050495E-02  0.300000012      0.972612083      0.961884618      0.326284468      -6.39497244E-04  0.277294695       1.71642751E-05
   4.04040404E-02  0.300000012      0.970810473      0.959390223      0.327141613      -6.10714487E-04  0.278126329       1.62310898E-05
   3.03030312E-02  0.300000012      0.968735218      0.956518590      0.328249782      -5.80147607E-04  0.279188126       1.44746155E-05
   2.02020202E-02  0.300000012      0.966420889      0.953317940      0.329584807      -5.44929528E-04  0.280458122       1.13788992E-05
   1.01010101E-02  0.300000012      0.963921368      0.949863970      0.331091076      -4.90027945E-04  0.281886339       7.32019544E-06
   0.00000000      0.289655179      0.961872578      0.947034597      0.332535446      -3.89654015E-04  0.283237070       2.92994082E-06
   0.00000000      0.279310346      0.961769760      0.946892798      0.332955688      -4.49307205E-04  0.283601135       2.90200114E-06
   0.00000000      0.268965513      0.961633682      0.946704924      0.333488077      -5.18977991E-04  0.284062743       2.51643360E-06
   0.00000000      0.258620679      0.961462498      0.946468890      0.334140092      -5.84479771E-04  0.284628421       2.40281224E-06
   0.00000000      0.248275861      0.961257756      0.946186781      0.334904552      -6.39912556E-04  0.285291821       2.45496631E-06
   0.00000000      0.237931028      0.961022913      0.945863008      0.335768074      -6.82572601E-04  0.286041498       2.26683915E-06
   0.00000000      0.227586210      0.960762262      0.945503354      0.336712390      -7.10667402E-04  0.286861658       1.76951289E-06
   0.00000000      0.217241377      0.960480511      0.945115030      0.337717235      -7.23746198E-04  0.287734628       1.57952309E-06
   0.00000000      0.206896558      0.960183322      0.944705427      0.338760495      -7.21957535E-04  0.288641393       1.37090683E-06
   0.00000000      0.196551725      0.959876359      0.944282651      0.339820027      -7.06349034E-04  0.289562643       1.36345625E-06
   0.00000000      0.186206892      0.959565938      0.943854928      0.340874493      -6.78829208E-04  0.290479928       1.14180148E-06
   0.00000000      0.175862074      0.959257603      0.943430007      0.341904342      -6.41493360E-04  0.291376263       8.00937414E-07
   0.00000000      0.165517241      0.958956480      0.943015158      0.342893332      -5.97073347E-04  0.292237401       4.95463610E-07
   0.00000000      0.155172408      0.958666801      0.942616284      0.343828142      -5.48300508E-04  0.293051720       4.19095159E-07
   0.00000000      0.144827589      0.958392322      0.942238390      0.344699293      -4.97870555E-04  0.293811023       3.18512321E-07
   0.00000000      0.134482756      0.958135605      0.941884935      0.345501125      -4.48341219E-04  0.294510216       1.54599547E-07
   0.00000000      0.124137931      0.957898200      0.941558123      0.346231550      -4.01855155E-04  0.295147479       8.94069672E-08
   0.00000000      0.113793105      0.957680702      0.941258967      0.346891791      -3.60213540E-04  0.295723647       1.89989805E-07
   0.00000000      0.103448279      0.957483053      0.940986872      0.347485811      -3.24838387E-04  0.296242237       2.23517418E-08
   0.00000000       9.31034461E-02  0.957304239      0.940740883      0.348019511      -2.96833576E-04  0.296708316       7.82310963E-08
   0.00000000       8.27586204E-02  0.957142889      0.940519094      0.348500818      -2.76716019E-04  0.297128648       3.03611159E-07
   0.00000000       7.24137947E-02  0.956997097      0.940318525      0.348938316      -2.64628499E-04  0.297510654       2.64495611E-07
   0.00000000       6.20689653E-02  0.956864834      0.940136492      0.349341244      -2.60436791E-04  0.297862470       1.65775418E-07
   0.00000000       5.17241396E-02  0.956743717      0.939969778      0.349719554      -2.63407972E-04  0.298192620       1.67638063E-08
   0.00000000       4.13793102E-02  0.956631601      0.939815760      0.350082517      -2.71486177E-04  0.298509061       2.45869160E-07
   0.00000000       3.10344826E-02  0.956526935      0.939671576      0.350439131      -2.80688604E-04  0.298819751       3.72529030E-08
   0.00000000       2.06896551E-02  0.956427753      0.939535260      0.350798309      -2.82165565E-04  0.299132198       1.34110451E-07
   0.00000000       1.03448275E-02  0.956334293      0.939406812      0.351167649      -2.55817024E-04  0.299452960       2.03028321E-07
   1.01942774E-02  -1.06002917E-05  0.956082582      0.939060628      0.351448476      -4.35872003E-04  0.299708366       1.54599547E-07
   2.03885511E-02  -4.05888240E-05  0.955420434      0.938150465      0.351891965      -1.00317341E-03  0.300129086       3.94880772E-07
   3.05827484E-02  -8.74972393E-05  0.954748869      0.937227666      0.352307141      -1.54107064E-03  0.300527096       6.87316060E-07
   4.07768898E-02  -1.49138228E-04  0.954061270      0.936283350      0.352735221      -2.02969811E-03  0.300937623       1.18277967E-06
   5.09709269E-02  -2.23550553E-04  0.953364134      0.935325742      0.353190869      -2.47006211E-03  0.301372796       1.27591193E-06
   6.11648858E-02  -3.08956922E-04  0.952669322      0.934371769      0.353674352      -2.86570471E-03  0.301831812       1.46776438E-06
   7.13587478E-02  -4.03728453E-04  0.951992691      0.933443189      0.354177386      -3.22015979E-03  0.302306622       1.89244747E-06
   8.15525427E-02  -5.06357115E-04  0.951352179      0.932564676      0.354686141      -3.53654847E-03  0.302784055       2.57045031E-06
   9.17462707E-02  -6.15430705E-04  0.950767219      0.931762815      0.355183214      -3.81711638E-03  0.303247958       3.46638262E-06
  0.101939946      -7.29613879E-04  0.950257599      0.931064665      0.355648845      -4.06352105E-03  0.303680211       4.47034836E-06
  0.112133577      -8.47629446E-04  0.949843585      0.930497766      0.356060624      -4.27635200E-03  0.304060251       5.51529229E-06
  0.122327171      -9.68243345E-04  0.949544609      0.930088818      0.356395215      -4.45574755E-03  0.304366767       6.72042370E-06
  0.132520750      -1.09024998E-03  0.949379504      0.929863989      0.356627703      -4.60110698E-03  0.304577231       8.34465027E-06
  0.142714337      -1.21245917E-03  0.949366629      0.929847777      0.356732577      -4.71138721E-03  0.304668605       9.95211303E-06
  0.152907923      -1.33368257E-03  0.949522734      0.930063784      0.356684744      -4.78532771E-03  0.304618239       1.20326877E-05
  0.163101539      -1.45272142E-03  0.949863493      0.930533230      0.356460005      -4.82137082E-03  0.304404557       1.42939389E-05
  0.173295200      -1.56835280E-03  0.950403214      0.931275904      0.356036186      -4.81760269E-03  0.304007769       1.68606639E-05
  0.183488905      -1.67931605E-03  0.951153576      0.932308257      0.355393827      -4.77164844E-03  0.303410470       1.98613852E-05
  0.193682685      -1.78429752E-03  0.952125013      0.933644354      0.354516476      -4.68068663E-03  0.302598327       2.28397548E-05
  0.203876525      -1.88191328E-03  0.953324497      0.935294688      0.353390962      -4.54101292E-03  0.301559776       2.62912363E-05
  0.214070454      -1.97069068E-03  0.954756439      0.937265933      0.352007091      -4.34843125E-03  0.300286233       3.04281712E-05
  0.224264458      -2.04904471E-03  0.956422150      0.939559996      0.350358158      -4.09747055E-03  0.298772395       3.46247107E-05
  0.234458551      -2.11525219E-03  0.958318889      0.942174077      0.348440498      -3.78189329E-03  0.297015905       3.93316150E-05
  0.244652733      -2.16741930E-03  0.960440457      0.945100844      0.346252680      -3.39451525E-03  0.295016408       4.49810177E-05
  0.254846990      -2.20344099E-03  0.962777078      0.948326826      0.343795776      -2.92685954E-03  0.292776406       5.06527722E-05
  0.265041292      -2.22095218E-03  0.965315342      0.951834619      0.341072947      -2.36925855E-03  0.290300399       5.66914678E-05
  0.275235593      -2.21726228E-03  0.968037665      0.955601037      0.338088542      -1.71043957E-03  0.287593991       6.32330775E-05
  0.285429865      -2.18927371E-03  0.970923841      0.959599555      0.334847301      -9.37071280E-04  0.284663677       7.08997250E-05
  0.295624018      -2.13337177E-03  0.973951757      0.963799417      0.331353098      -3.27872804E-05  0.281515568       7.88643956E-05
  0.305817962      -2.04527588E-03  0.977096260      0.968167543      0.327607781       1.02234306E-03  0.278154254       8.80546868E-05
  0.316011488      -1.91983546E-03  0.980331659      0.972669184      0.323609114       2.25410867E-03  0.274581432       9.88356769E-05
  0.326204360      -1.75073801E-03  0.983631790      0.977268517      0.319348872       3.69591755E-03  0.270794451       1.11241825E-04
  0.336396307      -1.53008103E-03  0.986970961      0.981930673      0.314810663       5.39319962E-03  0.266784698       1.25980936E-04
  0.346586645      -1.24772848E-03  0.990324080      0.986620843      0.309967548       7.40970671E-03  0.262536526       1.42789446E-04
  0.356774658      -8.90274358E-04  0.993667305      0.991306245      0.304778785       9.83896665E-03  0.258025974       1.62236392E-04
  0.366958946      -4.39326104E-04  0.996979058      0.995957017      0.299187124       1.28437662E-02  0.253221989       1.84538658E-04
  0.377137065       1.33766516E-04   1.00025320       1.00056660      0.293156892       1.71889365E-02  0.248149484       2.11949635E-04
  0.387299746       9.32033930E-04   1.00334513       1.00493324      0.287341058       2.36909389E-02  0.243478909       2.45809788E-04
  0.397434235       2.03104783E-03   1.00601256       1.00871456      0.282439291       3.19169722E-02  0.239902139       2.84504378E-04
  0.407523632       3.48527054E-03   1.00816262       1.01178014      0.278741002       4.17358056E-02  0.237778991       3.29969916E-04
  0.417543113       5.36030158E-03   1.00970018       1.01400077      0.276646703       5.35611846E-02  0.237645358       3.88790388E-04
  0.427456856       7.73026003E-03   1.01040995       1.01508558      0.277020425       6.79699481E-02  0.240513548       4.74340282E-04
  0.437217921       1.06651187E-02   1.00988805       1.01449347      0.281477809       8.54868665E-02  0.248056591       6.14202581E-04
  0.446780443       1.41935814E-02   1.00742209       1.01126802      0.292827636      0.105817251      0.262646705       8.52403231E-04
  0.456144422       1.82216074E-02   1.00194967       1.00395930      0.315114886      0.125731587      0.286450475       1.22457056E-03
  0.465438336       2.24102195E-02  0.992663205      0.991434336      0.350920856      0.136058673      0.318291217       1.70685013E-03
  0.474928796       2.61229333E-02  0.981013954      0.975661814      0.393890232      0.123997398      0.349959522       2.19676457E-03
  0.484786808       2.86871437E-02  0.971383989      0.962692678      0.427815169       8.65849927E-02  0.370562196       2.62572058E-03
  0.494905144       2.98680626E-02  0.967123985      0.957213342      0.441717863       3.82059366E-02  0.376648426       3.07103805E-03
  0.505094886       2.98680626E-02  0.967276275      0.957946539      0.438342452      -8.58397130E-03  0.372338057       3.61629669E-03
  0.515213192       2.86871418E-02  0.969230175      0.961489260      0.421603233      -5.56521267E-02  0.360854596       4.48253099E-03
  0.525071204       2.61229314E-02  0.972914279      0.967810392      0.391188711      -9.98615250E-02  0.342115819       5.72392531E-03
  0.534561634       2.24102195E-02  0.979724705      0.978515863      0.352111638     -0.126119733      0.316297352       6.95881899E-03
  0.543855608       1.82216056E-02  0.988999188      0.992410481      0.314342856     -0.126681268      0.285937995       7.86795933E-03
  0.553219557       1.41935805E-02  0.997704983       1.00529945      0.284958482     -0.109965779      0.257167310       8.50224867E-03
  0.562782109       1.06651178E-02   1.00368881       1.01425922      0.265687793      -8.89620185E-02  0.235563308       9.00365971E-03
  0.572543144       7.73025956E-03   1.00700414       1.01939714      0.254780322      -7.03814551E-02  0.222031504       9.43981111E-03
  0.582456887       5.36030112E-03   1.00852287       1.02191067      0.249627009      -5.54624572E-02  0.214697599       9.79263615E-03
  0.592476368       3.48527008E-03   1.00897944       1.02276969      0.248137802      -4.35791910E-02  0.211484075       9.99913737E-03