 title = "grid"
                                   variables = "x","y","rho","P","u","v","M","S"
 zone n=        3000  e =        5742  et=quadrilateral, f=fepoint
   0.00000000       0.00000000      0.956097603      0.939081311      0.353895575      -4.74018394E-04  0.301794291       1.78813934E-07
   1.00000000       0.00000000      0.946207166      0.932559133      0.332387418       8.30896781E-04  0.282967687       7.58848153E-03
   1.00000000      0.300000012      0.951491594      0.933332384      0.348404348       2.72005040E-04  0.297306240       6.20311126E-04
   0.00000000      0.300000012      0.962550044      0.947966218      0.323405266       8.19814522E-05  0.275421798       4.63798642E-07
   1.00000000       1.03448275E-02  0.947198212      0.932610095      0.337420613       1.35751150E-03  0.287396520       6.17755204E-03
   1.00000000       2.06896551E-02  0.948367894      0.932664633      0.343766361       1.92166236E-03  0.292975843       4.50833142E-03
   1.00000000       3.10344826E-02  0.949173450      0.932701230      0.348653555       2.38119788E-03  0.297263592       3.35890241E-03
   1.00000000       4.13793102E-02  0.949738801      0.932728231      0.352561295       2.77370308E-03  0.300682813       2.55419686E-03
   1.00000000       5.17241396E-02  0.950138628      0.932751238      0.355679631       3.11813527E-03  0.303404629       1.98963098E-03
   1.00000000       6.20689653E-02  0.950422466      0.932773232      0.358111084       3.42338486E-03  0.305522978       1.59500167E-03
   1.00000000       7.24137947E-02  0.950625241      0.932796776      0.359933764       3.69277201E-03  0.307109028       1.32155791E-03
   1.00000000       8.27586204E-02  0.950772583      0.932822943      0.361217111       3.92699521E-03  0.308225572       1.13267452E-03
   1.00000000       9.31034461E-02  0.950882614      0.932852983      0.362026751       4.12523793E-03  0.308931142       1.00284256E-03
   1.00000000      0.103448279      0.950967848      0.932887316      0.362425029       4.28620540E-03  0.309280753       9.14201140E-04
   1.00000000      0.113793105      0.951037705      0.932926118      0.362470955       4.40837815E-03  0.309326082       8.52907076E-04
   1.00000000      0.124137931      0.951098263      0.932969630      0.362219185       4.49023070E-03  0.309114754       8.10431316E-04
   1.00000000      0.134482756      0.951153457      0.933017194      0.361720532       4.53032693E-03  0.308690786       7.80170783E-04
   1.00000000      0.144827589      0.951205909      0.933068514      0.361020684       4.52753948E-03  0.308093637       7.58001581E-04
   1.00000000      0.155172408      0.951256752      0.933122277      0.360160857       4.48076148E-03  0.307358831       7.40738586E-04
   1.00000000      0.165517241      0.951306343      0.933177590      0.359178066       4.38927906E-03  0.306518197       7.27063045E-04
   1.00000000      0.175862074      0.951355159      0.933233380      0.358106762       4.25268570E-03  0.305601418       7.14976341E-04
   1.00000000      0.186206892      0.951402426      0.933287919      0.356979907       4.07105871E-03  0.304636747       7.03847036E-04
   1.00000000      0.196551725      0.951447248      0.933339894      0.355828285       3.84523999E-03  0.303650677       6.93568960E-04
   1.00000000      0.206896558      0.951489389      0.933388174      0.354681432       3.57646123E-03  0.302668601       6.83339313E-04
   1.00000000      0.217241377      0.951527596      0.933431387      0.353567153       3.26693221E-03  0.301714301       6.73415139E-04
   1.00000000      0.227586210      0.951561630      0.933468580      0.352511704       2.91968952E-03  0.300810516       6.63176179E-04
   1.00000000      0.237931028      0.951590717      0.933498919      0.351538390       2.53896811E-03  0.299977213       6.52898103E-04
   1.00000000      0.248275861      0.951613903      0.933521688      0.350667894       2.13015592E-03  0.299232095       6.43141568E-04
   1.00000000      0.258620679      0.951630592      0.933536112      0.349915892       1.70082611E-03  0.298588723       6.34068623E-04
   1.00000000      0.268965513      0.951639235      0.933540881      0.349292517       1.26168539E-03  0.298055798       6.26495108E-04
   1.00000000      0.279310346      0.951637745      0.933533609      0.348802030       8.29967903E-04  0.297637105       6.20851293E-04
   1.00000000      0.289655179      0.951619804      0.933506429      0.348444432       4.38918243E-04  0.297332883       6.18120655E-04
  0.989898980      0.300000012      0.952011108      0.934037924      0.348165005       3.41945939E-04  0.297070891       6.11767173E-04
  0.979797959      0.300000012      0.953155339      0.935593843      0.347700328       4.25242732E-04  0.296605766       5.94543293E-04
  0.969696999      0.300000012      0.954169810      0.936973155      0.347341180       4.95445973E-04  0.296238810       5.78399748E-04
  0.959595978      0.300000012      0.955057442      0.938179433      0.347098082       5.59108565E-04  0.295978785       5.63254580E-04
  0.949494958      0.300000012      0.955825508      0.939221978      0.346969187       6.18795922E-04  0.295823544       5.48437238E-04
  0.939393938      0.300000012      0.956482828      0.940113604      0.346946597       6.75385760E-04  0.295765758       5.34852967E-04
  0.929292917      0.300000012      0.957040012      0.940868676      0.347019553       7.29159045E-04  0.295795441       5.22373244E-04
  0.919191897      0.300000012      0.957508087      0.941502213      0.347176194       7.80095055E-04  0.295901805       5.10966405E-04
  0.909090936      0.300000012      0.957898617      0.942029417      0.347404212       8.28074699E-04  0.296073705       4.99872491E-04
  0.898989916      0.300000012      0.958221972      0.942465067      0.347691566       8.72753561E-04  0.296300203       4.89713624E-04
  0.888888896      0.300000012      0.958488286      0.942822874      0.348027080       9.14095028E-04  0.296571106       4.80242074E-04
  0.878787875      0.300000012      0.958707154      0.943116128      0.348399878       9.51919472E-04  0.296876609       4.71636653E-04
  0.868686855      0.300000012      0.958887279      0.943356812      0.348799974       9.86044644E-04  0.297207624       4.63724136E-04
  0.858585835      0.300000012      0.959037602      0.943556726      0.349217594       1.01651473E-03  0.297555357       4.56234440E-04
  0.848484874      0.300000012      0.959166586      0.943727612      0.349643469       1.04326196E-03  0.297911316       4.49018553E-04
  0.838383853      0.300000012      0.959282696      0.943881154      0.350067675       1.06643687E-03  0.298266619       4.42208722E-04
  0.828282833      0.300000012      0.959394932      0.944029570      0.350480139       1.08613598E-03  0.298612088       4.35627997E-04
  0.818181813      0.300000012      0.959512711      0.944186270      0.350870430       1.10255566E-03  0.298938185       4.29788604E-04
  0.808080792      0.300000012      0.959646463      0.944365144      0.351226926       1.11595576E-03  0.299234480       4.24059108E-04
  0.797979772      0.300000012      0.959806442      0.944580317      0.351538122       1.12659018E-03  0.299490482       4.18571755E-04
  0.787878811      0.300000012      0.960002899      0.944845915      0.351792127       1.13476533E-03  0.299695402       4.13121656E-04
  0.777777791      0.300000012      0.960245430      0.945175290      0.351977855       1.14086270E-03  0.299839288       4.08081338E-04
  0.767676771      0.300000012      0.960542381      0.945579767      0.352085054       1.14512874E-03  0.299912810       4.03009355E-04
  0.757575750      0.300000012      0.960899770      0.946067452      0.352105796       1.14786392E-03  0.299908996       3.97814438E-04
  0.747474730      0.300000012      0.961321354      0.946643472      0.352034688       1.14934193E-03  0.299822927       3.92403454E-04
  0.737373710      0.300000012      0.961807191      0.947308004      0.351869166       1.14983111E-03  0.299652487       3.86746600E-04
  0.727272749      0.300000012      0.962354243      0.948056936      0.351610452       1.14943611E-03  0.299399018       3.81028280E-04
  0.717171729      0.300000012      0.962956250      0.948881567      0.351263493       1.14816776E-03  0.299067050       3.74915078E-04
  0.707070708      0.300000012      0.963604033      0.949769139      0.350837082       1.14587299E-03  0.298664838       3.68414447E-04
  0.696969688      0.300000012      0.964285374      0.950703382      0.350343436       1.14241347E-03  0.298203349       3.61999497E-04
  0.686868668      0.300000012      0.964986801      0.951664865      0.349797696       1.13757642E-03  0.297696620       3.54820862E-04
  0.676767647      0.300000012      0.965693176      0.952633142      0.349217534       1.13115611E-03  0.297160447       3.47370282E-04
  0.666666687      0.300000012      0.966388941      0.953587115      0.348621756       1.12307083E-03  0.296611816       3.39960679E-04
  0.656565666      0.300000012      0.967059195      0.954506040      0.348029226       1.11336377E-03  0.296067744       3.32478434E-04
  0.646464646      0.300000012      0.967689514      0.955370247      0.347457916       1.10250793E-03  0.295544297       3.25268134E-04
  0.636363626      0.300000012      0.968267500      0.956162214      0.346923351       1.09105185E-03  0.295055419       3.17929313E-04
  0.626262605      0.300000012      0.968782246      0.956866860      0.346437186       1.07994745E-03  0.294611663       3.10536474E-04
  0.616161644      0.300000012      0.969224930      0.957471669      0.346006513       1.07045902E-03  0.294219643       3.02858651E-04
  0.606060624      0.300000012      0.969588757      0.957967579      0.345633209       1.06352114E-03  0.293881267       2.95242295E-04
  0.595959604      0.300000012      0.969868660      0.958347380      0.345313936       1.06000586E-03  0.293593973       2.87523493E-04
  0.585858583      0.300000012      0.970061302      0.958606184      0.345041066       1.06060458E-03  0.293351501       2.79502943E-04
  0.575757563      0.300000012      0.970164716      0.958741128      0.344803452       1.06535084E-03  0.293144464       2.70992517E-04
  0.565656543      0.300000012      0.970177174      0.958750546      0.344588399       1.07335520E-03  0.292962104       2.62839720E-04
  0.555555582      0.300000012      0.970097840      0.958632588      0.344384879       1.08272140E-03  0.292795151       2.54297629E-04
  0.545454562      0.300000012      0.969925106      0.958385050      0.344185680       1.09079026E-03  0.292637527       2.45369971E-04
  0.535353541      0.300000012      0.969656646      0.958004713      0.343990028       1.09506887E-03  0.292488754       2.35989690E-04
  0.525252521      0.300000012      0.969289601      0.957488477      0.343804747       1.09434710E-03  0.292354673       2.26993114E-04
  0.515151501      0.300000012      0.968822300      0.956833601      0.343641639       1.09033892E-03  0.292245477       2.17899680E-04
  0.505050480      0.300000012      0.968254089      0.956039250      0.343512326       1.08599698E-03  0.292171121       2.08722427E-04
  0.494949490      0.300000012      0.967583597      0.955104113      0.343426615       1.08200067E-03  0.292139977       1.99945644E-04
  0.484848499      0.300000012      0.966808856      0.954025209      0.343396395       1.07604091E-03  0.292162329       1.91077590E-04
  0.474747479      0.300000012      0.965928555      0.952801466      0.343434989       1.06779661E-03  0.292249620       1.82883814E-04
  0.464646459      0.300000012      0.964943886      0.951434672      0.343550265       1.05942017E-03  0.292408437       1.75209716E-04
  0.454545468      0.300000012      0.963856697      0.949927092      0.343741953       1.05061068E-03  0.292638630       1.67701393E-04
  0.444444448      0.300000012      0.962669075      0.948281348      0.344007343       1.03780755E-03  0.292937905       1.59718096E-04
  0.434343427      0.300000012      0.961382866      0.946501076      0.344346017       1.01712241E-03  0.293305725       1.52394176E-04
  0.424242437      0.300000012      0.960003376      0.944593072      0.344758868       9.86584113E-04  0.293742806       1.44779682E-04
  0.414141417      0.300000012      0.958538532      0.942568839      0.345246434       9.45979147E-04  0.294249058       1.37409195E-04
  0.404040396      0.300000012      0.956999958      0.940444291      0.345806390       8.96141632E-04  0.294821978       1.29859895E-04
  0.393939406      0.300000012      0.955402434      0.938240290      0.346432567       8.38605338E-04  0.295455515       1.22450292E-04
  0.383838385      0.300000012      0.953763783      0.935980916      0.347114563       7.74863642E-04  0.296139836       1.14765018E-04
  0.373737365      0.300000012      0.952104092      0.933694184      0.347837955       7.06649036E-04  0.296861410       1.06923282E-04
  0.363636374      0.300000012      0.950444937      0.931409776      0.348585188       6.35745004E-04  0.297603935       9.91038978E-05
  0.353535354      0.300000012      0.948808849      0.929158509      0.349335581       5.63979556E-04  0.298348486       9.11746174E-05
  0.343434334      0.300000012      0.947218597      0.926972210      0.350066453       4.93019936E-04  0.299073994       8.38153064E-05
  0.333333343      0.300000012      0.945696175      0.924880743      0.350754023       4.24192724E-04  0.299758762       7.70427287E-05
  0.323232323      0.300000012      0.944262564      0.922912538      0.351374835       3.58475634E-04  0.300381362       7.06315041E-05
  0.313131303      0.300000012      0.942935884      0.921092331      0.351907134       2.96614162E-04  0.300921857       6.47939742E-05
  0.303030312      0.300000012      0.941732109      0.919441760      0.352331817       2.38978042E-04  0.301362723       5.95971942E-05
  0.292929292      0.300000012      0.940664291      0.917978585      0.352632910       1.85746103E-04  0.301689327       5.53131104E-05
  0.282828271      0.300000012      0.939742327      0.916715741      0.352798611       1.36913979E-04  0.301890850       5.15058637E-05
  0.272727281      0.300000012      0.938973606      0.915663004      0.352821469       9.23939297E-05  0.301960289       4.81680036E-05
  0.262626261      0.300000012      0.938362122      0.914825678      0.352697879       5.19909881E-05  0.301894277       4.53442335E-05
  0.252525240      0.300000012      0.937909782      0.914206147      0.352427989       1.55298767E-05  0.301692724       4.29078937E-05
  0.242424250      0.300000012      0.937616110      0.913803875      0.352015167      -1.69982068E-05  0.301358461       4.12166119E-05
  0.232323229      0.300000012      0.937479436      0.913615823      0.351464808      -4.54126712E-05  0.300896317       3.95476818E-05
  0.222222224      0.300000012      0.937496424      0.913637936      0.350783855      -6.96079151E-05  0.300312430       3.83406878E-05
  0.212121218      0.300000012      0.937663019      0.913864255      0.349979997      -8.93292818E-05  0.299613744       3.73087823E-05
  0.202020198      0.300000012      0.937974453      0.914288104      0.349061340      -1.04194325E-04  0.298807681       3.60719860E-05
  0.191919193      0.300000012      0.938425541      0.914902449      0.348036051      -1.14090602E-04  0.297901541       3.46340239E-05
  0.181818187      0.300000012      0.939010620      0.915700078      0.346912056      -1.18826581E-04  0.296902627       3.35164368E-05
  0.171717167      0.300000012      0.939724028      0.916673005      0.345697433      -1.18543874E-04  0.295818329       3.21678817E-05
  0.161616161      0.300000012      0.940560043      0.917813241      0.344400138      -1.13496630E-04  0.294656098       3.03983688E-05
  0.151515156      0.300000012      0.941512048      0.919112921      0.343029201      -1.04270512E-04  0.293423951       2.90833414E-05
  0.141414136      0.300000012      0.942573607      0.920562685      0.341594398      -9.13319527E-05  0.292131007       2.75485218E-05
  0.131313130      0.300000012      0.943737686      0.922153294      0.340106368      -7.54708090E-05  0.290786892       2.60025263E-05
  0.121212125      0.300000012      0.944996297      0.923874021      0.338577062      -5.74944570E-05  0.289402425       2.44453549E-05
  0.111111112      0.300000012      0.946340621      0.925713778      0.337020069      -3.83194238E-05  0.287989825       2.36369669E-05
  0.101010099      0.300000012      0.947761059      0.927658677      0.335450321      -1.88455251E-05  0.286562622       2.26050615E-05
   9.09090936E-02  0.300000012      0.949246585      0.929693937      0.333884835       5.45618946E-08  0.285136104       2.15247273E-05
   8.08080807E-02  0.300000012      0.950784862      0.931802392      0.332342476       1.73272183E-05  0.283727229       1.99377537E-05
   7.07070678E-02  0.300000012      0.952361822      0.933964849      0.330844194       3.22428496E-05  0.282354832       1.78720802E-05
   6.06060624E-02  0.300000012      0.953961074      0.936158717      0.329412073       4.43869103E-05  0.281038672       1.51470304E-05
   5.05050495E-02  0.300000012      0.955564737      0.938359380      0.328068316       5.41578302E-05  0.279798716       1.16024166E-05
   4.04040404E-02  0.300000012      0.957152784      0.940539658      0.326832891       6.29815549E-05  0.278653085       7.69086182E-06
   3.03030312E-02  0.300000012      0.958703578      0.942670763      0.325721473       7.30700485E-05  0.277615994       4.45917249E-06
   2.02020202E-02  0.300000012      0.960194051      0.944720984      0.324744105       8.67754134E-05  0.276697367       2.16253102E-06
   1.01010101E-02  0.300000012      0.961598575      0.946655214      0.323911071       1.01678292E-04  0.275907010       1.14366412E-06
   0.00000000      0.289655179      0.962636054      0.948084891      0.323303223      -5.56018349E-05  0.275329947       5.49480319E-07
   0.00000000      0.279310346      0.962645233      0.948097289      0.323289663      -1.92489126E-04  0.275317967       3.16649675E-07
   0.00000000      0.268965513      0.962625682      0.948070467      0.323417246      -3.13562574E-04  0.275427818       4.50760126E-07
   0.00000000      0.258620679      0.962581933      0.948010087      0.323668629      -4.27946565E-04  0.275644541       4.22820449E-07
   0.00000000      0.248275861      0.962515652      0.947918713      0.324036688      -5.38789260E-04  0.275961906       4.26545739E-07
   0.00000000      0.237931028      0.962427437      0.947797120      0.324518681      -6.47573033E-04  0.276377618       4.76837158E-07
   0.00000000      0.227586210      0.962317526      0.947645605      0.325113356      -7.54833978E-04  0.276890576       4.48897481E-07
   0.00000000      0.217241377      0.962185562      0.947463572      0.325820893      -8.60480126E-04  0.277501017       3.48314643E-07
   0.00000000      0.206896558      0.962030888      0.947250664      0.326641828      -9.63897153E-04  0.278209358       6.66826963E-07
   0.00000000      0.196551725      0.961853683      0.947006345      0.327576250      -1.06429798E-03  0.279015750       6.23986125E-07
   0.00000000      0.186206892      0.961653233      0.946730077      0.328624219      -1.16073911E-03  0.279920340       6.18398190E-07
   0.00000000      0.175862074      0.961429298      0.946421266      0.329784572      -1.25144003E-03  0.280922055       4.89875674E-07
   0.00000000      0.165517241      0.961181343      0.946079791      0.331054747      -1.33478839E-03  0.282018811       7.22706318E-07
   0.00000000      0.155172408      0.960909784      0.945705652      0.332430393      -1.40868942E-03  0.283206940       7.32019544E-07
   0.00000000      0.144827589      0.960615337      0.945299864      0.333904445      -1.47080072E-03  0.284480423       6.14672899E-07
   0.00000000      0.134482756      0.960298955      0.944864094      0.335467041      -1.51874684E-03  0.285830706       6.85453415E-07
   0.00000000      0.124137931      0.959962368      0.944400728      0.337105185      -1.55006803E-03  0.287246644       9.72300768E-07
   0.00000000      0.113793105      0.959608853      0.943913758      0.338801920      -1.56231399E-03  0.288713753       8.94069672E-07
   0.00000000      0.103448279      0.959241688      0.943408072      0.340536922      -1.55374850E-03  0.290214390       7.67409801E-07
   0.00000000       9.31034461E-02  0.958865404      0.942890227      0.342286438      -1.52279541E-03  0.291728109       9.61124897E-07
   0.00000000       8.27586204E-02  0.958485901      0.942367613      0.344023526      -1.46868092E-03  0.293231636       8.00937414E-07
   0.00000000       7.24137947E-02  0.958109200      0.941849291      0.345719516      -1.39176578E-03  0.294700056       9.46223736E-07
   0.00000000       6.20689653E-02  0.957742691      0.941344798      0.347344518      -1.29314163E-03  0.296107590       8.19563866E-07
   0.00000000       5.17241396E-02  0.957393169      0.940863729      0.348869860      -1.17533363E-03  0.297429234       6.63101673E-07
   0.00000000       4.13793102E-02  0.957067668      0.940415680      0.350269437      -1.04150700E-03  0.298642457       3.83704901E-07
   0.00000000       3.10344826E-02  0.956771910      0.940008759      0.351521999      -8.95601057E-04  0.299728572       2.45869160E-07
   0.00000000       2.06896551E-02  0.956510246      0.939648747      0.352613270      -7.41421303E-04  0.300675243       1.54599547E-07
   0.00000000       1.03448275E-02  0.956284344      0.939338148      0.353539675      -5.81518048E-04  0.301479161       2.16066837E-07
   1.01942774E-02  -1.06002917E-05  0.956582487      0.939748108      0.353605837      -7.71952677E-04  0.301517069       1.60187483E-07
   2.03885511E-02  -4.05888240E-05  0.957783043      0.941400111      0.352791607      -1.48684776E-03  0.300749242       5.77419996E-07
   3.05827484E-02  -8.74972393E-05  0.959192932      0.943341374      0.351722032      -2.14441633E-03  0.299752086       1.21816993E-06
   4.07768898E-02  -1.49138228E-04  0.960791647      0.945544004      0.350444853      -2.73073069E-03  0.298567563       1.95764005E-06
   5.09709269E-02  -2.23550553E-04  0.962563038      0.947986186      0.348993480      -3.24477931E-03  0.297225207       2.63005495E-06
   6.11648858E-02  -3.08956922E-04  0.964490712      0.950645745      0.347394377      -3.68720503E-03  0.295748770       3.29315662E-06
   7.13587478E-02  -4.03728453E-04  0.966555893      0.953497469      0.345670521      -4.05874895E-03  0.294158876       4.06801701E-06
   8.15525427E-02  -5.06357115E-04  0.968737781      0.956513226      0.343843043      -4.36056964E-03  0.292475045       5.13903797E-06
   9.17462707E-02  -6.15430705E-04  0.971014023      0.959662497      0.341931611      -4.59373882E-03  0.290715337       6.50063157E-06
  0.101939946      -7.29613879E-04  0.973361552      0.962913573      0.339954525      -4.75987140E-03  0.288896859       7.95070082E-06
  0.112133577      -8.47629446E-04  0.975757062      0.966234446      0.337928355      -4.86074807E-03  0.287035167       9.54139978E-06
  0.122327171      -9.68243345E-04  0.978177726      0.969593465      0.335868448      -4.89872973E-03  0.285144776       1.10547990E-05
  0.132520750      -1.09024998E-03  0.980601788      0.972961485      0.333788484      -4.87608090E-03  0.283238441       1.35516748E-05
  0.142714337      -1.21245917E-03  0.983010054      0.976310551      0.331699699      -4.79542883E-03  0.281327009       1.57188624E-05
  0.152907923      -1.33368257E-03  0.985384881      0.979616761      0.329611450      -4.65915259E-03  0.279419363       1.83433294E-05
  0.163101539      -1.45272142E-03  0.987711012      0.982858419      0.327530742      -4.46950691E-03  0.277522355       2.09663995E-05
  0.173295200      -1.56835280E-03  0.989975393      0.986017048      0.325461775      -4.22820635E-03  0.275640219       2.36737542E-05
  0.183488905      -1.67931605E-03  0.992166579      0.989077389      0.323406756      -3.93666839E-03  0.273775399       2.72844918E-05
  0.193682685      -1.78429752E-03  0.994276047      0.992026269      0.321365714      -3.59587208E-03  0.271928430       3.08908056E-05
  0.203876525      -1.88191328E-03  0.996296704      0.994853616      0.319337517      -3.20605119E-03  0.270098746       3.45653389E-05
  0.214070454      -1.97069068E-03  0.998222351      0.997550726      0.317320138      -2.76705320E-03  0.268284947       3.86501779E-05
  0.224264458      -2.04904471E-03   1.00004804       1.00011003      0.315311760      -2.27764342E-03  0.266485780       4.27720261E-05
  0.234458551      -2.11525219E-03   1.00176895       1.00252461      0.313311040      -1.73583301E-03  0.264700383       4.71275998E-05
  0.244652733      -2.16741930E-03   1.00338101       1.00478828      0.311317474      -1.13848434E-03  0.262928724       5.13799023E-05
  0.254846990      -2.20344099E-03   1.00487924       1.00689423      0.309331268      -4.80817049E-04  0.261171222       5.62667847E-05
  0.265041292      -2.22095218E-03   1.00625873       1.00883520      0.307353199       2.43707997E-04  0.259429008       6.15557656E-05
  0.275235593      -2.21726228E-03   1.00751483       1.01060450      0.305383682       1.04373985E-03  0.257703006       6.72861934E-05
  0.285429865      -2.18927371E-03   1.00864303       1.01219499      0.303421944       1.93053205E-03  0.255993187       7.30333850E-05
  0.295624018      -2.13337177E-03   1.00963974       1.01360190      0.301464409       2.91916798E-03  0.254297376       7.92765059E-05
  0.305817962      -2.04527588E-03   1.01050341       1.01482284      0.299502671       4.02889634E-03  0.252609521       8.59065913E-05
  0.316011488      -1.91983546E-03   1.01123559       1.01585937      0.297520876       5.28565934E-03  0.250917733       9.27899964E-05
  0.326204360      -1.75073801E-03   1.01184082       1.01671863      0.295494199       6.72424911E-03  0.249202892       1.00607518E-04
  0.336396307      -1.53008103E-03   1.01232791       1.01741278      0.293386042       8.39250162E-03  0.247437254       1.09434593E-04
  0.346586645      -1.24772848E-03   1.01270974       1.01796043      0.291144937       1.03581818E-02  0.245582253       1.19506847E-04
  0.356774658      -8.90274358E-04   1.01300371       1.01838660      0.288700938       1.27203697E-02  0.243587211       1.31715555E-04
  0.366958946      -4.39326104E-04   1.01323330       1.01872468      0.285960376       1.56491734E-02  0.241389006       1.46358274E-04
  0.377137065       1.33766516E-04   1.01344252       1.01903832      0.282840192       1.99065208E-02  0.238976046       1.65143982E-04
  0.387299746       9.32033930E-04   1.01354170       1.01920140      0.279905081       2.63263434E-02  0.236946374       1.88271981E-04
  0.397434235       2.03104783E-03   1.01332474       1.01892543      0.277781725       3.45438793E-02  0.235925645       2.17094552E-04
  0.407523632       3.48527054E-03   1.01271403       1.01810431      0.276720494       4.44788001E-02  0.236245468       2.54892278E-04
  0.417543113       5.36030158E-03   1.01161885       1.01661730      0.277088910       5.65807708E-02  0.238427013       3.08051240E-04
  0.427456856       7.73026003E-03   1.00980937       1.01415479      0.279730856       7.14601800E-02  0.243484735       3.89359891E-04
  0.437217921       1.06651187E-02   1.00684583       1.01012731      0.286262661       8.96753073E-02  0.253117204       5.24887815E-04
  0.446780443       1.41935814E-02   1.00195372       1.00349474      0.299532175      0.110924125      0.269744635       7.56140449E-04
  0.456144422       1.82216074E-02  0.993965149      0.992671549      0.323682278      0.131860584      0.295582503       1.11893320E-03
  0.465438336       2.24102195E-02  0.981964767      0.976395369      0.361406863      0.142978147      0.329414338       1.59211829E-03
  0.474928796       2.61229333E-02  0.967421353      0.956683278      0.406284004      0.130967066      0.362791091       2.08669715E-03
  0.484786808       2.86871437E-02  0.954924047      0.939865828      0.441746503       9.26254839E-02  0.384506524       2.55473703E-03
  0.494905144       2.98680626E-02  0.947975576      0.930784762      0.456571162       4.27157059E-02  0.391120732       3.06993723E-03
  0.505094886       2.98680626E-02  0.945529401      0.928001523      0.453849137      -5.78373624E-03  0.387209445       3.69249657E-03
  0.515213192       2.86871418E-02  0.944909573      0.928038061      0.437623978      -5.47436178E-02  0.376115263       4.64991853E-03
  0.525071204       2.61229314E-02  0.946192026      0.931035280      0.407371223     -0.101069435      0.357605368       5.97551651E-03
  0.534561634       2.24102195E-02  0.951012909      0.938827634      0.368082047     -0.129184470      0.331821948       7.19527714E-03
  0.543855608       1.82216056E-02  0.958835781      0.950354159      0.329910934     -0.130696505      0.301243395       7.92908110E-03
  0.553219557       1.41935805E-02  0.966533840      0.961370289      0.300057799     -0.113855198      0.271964937       8.25889036E-03
  0.562782109       1.06651178E-02  0.971744955      0.968781590      0.280290395      -9.20787901E-02  0.249724805       8.41053855E-03
  0.572543144       7.73025956E-03  0.974372566      0.972593844      0.268868655      -7.25853816E-02  0.235585645       8.55743140E-03
  0.582456887       5.36030112E-03  0.975228727      0.974011719      0.263205886      -5.68842366E-02  0.227727532       8.78456607E-03
  0.592476368       3.48527008E-03  0.975032091      0.974037707      0.261301786      -4.44502495E-02  0.224127159       9.09360591E-03