 title = "grid"
                                   variables = "x","y","rho","P","u","v","M","S"
 zone n=        3000  e =        5742  et=quadrilateral, f=fepoint
   0.00000000       0.00000000      0.962406993      0.947768927      0.327575326      -4.78712551E-04  0.278981745       4.28408384E-07
   1.00000000       0.00000000      0.944952607      0.931238234      0.321613133       5.58750471E-04  0.273807317       8.02852772E-03
   1.00000000      0.300000012      0.951740801      0.933617890      0.379228741       3.43665597E-04  0.323602766       5.59559092E-04
   0.00000000      0.300000012      0.956541359      0.939692318      0.349057257       2.03138421E-04  0.297640324       9.74163413E-07
   1.00000000       1.03448275E-02  0.946072161      0.931385338      0.326927155       1.15639833E-03  0.278475583       6.52885251E-03
   1.00000000       2.06896551E-02  0.947335243      0.931452036      0.333790749       1.81118923E-03  0.284503937       4.73256223E-03
   1.00000000       3.10344826E-02  0.948239625      0.931522191      0.339284003       2.35061953E-03  0.289315850       3.47196683E-03
   1.00000000       4.13793102E-02  0.948890924      0.931599438      0.343916506       2.80273380E-03  0.293357342       2.59360857E-03
   1.00000000       5.17241396E-02  0.949366033      0.931685507      0.347884238       3.18340142E-03  0.296804935       1.98519789E-03
   1.00000000       6.20689653E-02  0.949719727      0.931781352      0.351295114       3.50132142E-03  0.299757719       1.56663731E-03
   1.00000000       7.24137947E-02  0.949991405      0.931886911      0.354232490       3.76104563E-03  0.302292258       1.27949752E-03
   1.00000000       8.27586204E-02  0.950207889      0.932001412      0.356770635       3.96504113E-03  0.304475904       1.08334608E-03
   1.00000000       9.31034461E-02  0.950388193      0.932124197      0.358978063       4.11471678E-03  0.306369841       9.49406996E-04
   1.00000000      0.103448279      0.950544536      0.932253301      0.360918045       4.21128003E-03  0.308030277       8.57675448E-04
   1.00000000      0.113793105      0.950685084      0.932387292      0.362647027       4.25610272E-03  0.309506774       7.94403255E-04
   1.00000000      0.124137931      0.950814426      0.932523668      0.364214361       4.25119651E-03  0.310842633       7.50195235E-04
   1.00000000      0.134482756      0.950935423      0.932660639      0.365661114       4.19920636E-03  0.312073648       7.18927011E-04
   1.00000000      0.144827589      0.951049328      0.932795346      0.367019176       4.10352321E-03  0.313227743       6.95617869E-04
   1.00000000      0.155172408      0.951156378      0.932925999      0.368311673       3.96796223E-03  0.314325094       6.78133219E-04
   1.00000000      0.165517241      0.951256275      0.933050454      0.369552851       3.79717653E-03  0.315378219       6.64506108E-04
   1.00000000      0.175862074      0.951348841      0.933166564      0.370750278       3.59612517E-03  0.316393971       6.52676448E-04
   1.00000000      0.186206892      0.951433361      0.933272898      0.371905535       3.36972112E-03  0.317373961       6.42234460E-04
   1.00000000      0.196551725      0.951509535      0.933368504      0.373014838       3.12305591E-03  0.318315178       6.32649288E-04
   1.00000000      0.206896558      0.951577425      0.933452845      0.374070138       2.86096521E-03  0.319210827       6.23045489E-04
   1.00000000      0.217241377      0.951636970      0.933525622      0.375060409       2.58778990E-03  0.320051640       6.13467768E-04
   1.00000000      0.227586210      0.951688528      0.933587492      0.375972331       2.30727089E-03  0.320826292       6.03888184E-04
   1.00000000      0.237931028      0.951732814      0.933638871      0.376791239       2.02244404E-03  0.321522295       5.93783334E-04
   1.00000000      0.248275861      0.951770365      0.933681250      0.377502501       1.73543137E-03  0.322127044       5.83881512E-04
   1.00000000      0.258620679      0.951801777      0.933715641      0.378091753       1.44728704E-03  0.322628200       5.74504957E-04
   1.00000000      0.268965513      0.951828063      0.933744550      0.378546447       1.15677901E-03  0.323014826       5.66801056E-04
   1.00000000      0.279310346      0.951851130      0.933770895      0.378856421       8.59013468E-04  0.323277980       5.61129302E-04
   1.00000000      0.289655179      0.951875389      0.933801115      0.379017860       5.38565684E-04  0.323414087       5.57795167E-04
  0.989898980      0.300000012      0.952425003      0.934551299      0.378654033       4.10959910E-04  0.323067039       5.52713871E-04
  0.979797959      0.300000012      0.954087436      0.936823189      0.377388507       3.57797428E-04  0.321877152       5.39256260E-04
  0.969696999      0.300000012      0.955832481      0.939211428      0.376016587       3.11445445E-04  0.320591778       5.27027994E-04
  0.959595978      0.300000012      0.957638204      0.941685438      0.374555290       2.67941592E-04  0.319227129       5.15364110E-04
  0.949494958      0.300000012      0.959479988      0.944211304      0.373028576       2.26338510E-04  0.317805588       5.04069030E-04
  0.939393938      0.300000012      0.961331367      0.946753442      0.371462643       1.86532794E-04  0.316351056       4.93971631E-04
  0.929292917      0.300000012      0.963167667      0.949277163      0.369882911       1.48809399E-04  0.314887017       4.84397635E-04
  0.919191897      0.300000012      0.964965343      0.951750040      0.368313491       1.13568189E-04  0.313435376       4.75466251E-04
  0.909090936      0.300000012      0.966703117      0.954142511      0.366775364       8.09871708E-05  0.312015444       4.67181206E-04
  0.898989916      0.300000012      0.968362987      0.956429601      0.365287364       5.12423139E-05  0.310644180       4.59486619E-04
  0.888888896      0.300000012      0.969929874      0.958589792      0.363865256       2.44136063E-05  0.309335917       4.52095643E-04
  0.878787875      0.300000012      0.971391678      0.960606396      0.362522066       4.54569005E-07  0.308102250       4.45194542E-04
  0.868686855      0.300000012      0.972740173      0.962467730      0.361267805      -2.07779194E-05  0.306952089       4.38810326E-04
  0.858585835      0.300000012      0.973969519      0.964164972      0.360110372      -3.95270872E-05  0.305892378       4.32534143E-04
  0.848484874      0.300000012      0.975077093      0.965694487      0.359055132      -5.60165972E-05  0.304927617       4.26519662E-04
  0.838383853      0.300000012      0.976062536      0.967055738      0.358105540      -7.04324484E-05  0.304060549       4.20912169E-04
  0.828282833      0.300000012      0.976927996      0.968251288      0.357263178      -8.31055004E-05  0.303292364       4.15623188E-04
  0.818181813      0.300000012      0.977677524      0.969286263      0.356527835      -9.41873732E-05  0.302622497       4.10290435E-04
  0.808080792      0.300000012      0.978316367      0.970168352      0.355897963      -1.03769562E-04  0.302049130       4.05373983E-04
  0.797979772      0.300000012      0.978851736      0.970906496      0.355370462      -1.12003596E-04  0.301569283       4.00012359E-04
  0.787878811      0.300000012      0.979291379      0.971511424      0.354941308      -1.18961201E-04  0.301178873       3.94234434E-04
  0.777777791      0.300000012      0.979643643      0.971995115      0.354604810      -1.24614176E-04  0.300872594       3.88499349E-04
  0.767676771      0.300000012      0.979918182      0.972370446      0.354354471      -1.29090506E-04  0.300644308       3.82252969E-04
  0.757575750      0.300000012      0.980124712      0.972651541      0.354182750      -1.32497560E-04  0.300486833       3.76291573E-04
  0.747474730      0.300000012      0.980274498      0.972853303      0.354080826      -1.34877613E-04  0.300392151       3.69760208E-04
  0.737373710      0.300000012      0.980379283      0.972992241      0.354039162      -1.36276038E-04  0.300351441       3.62917781E-04
  0.727272749      0.300000012      0.980451643      0.973085821      0.354046941      -1.36777133E-04  0.300354660       3.55727039E-04
  0.717171729      0.300000012      0.980505049      0.973153174      0.354092687      -1.36542047E-04  0.300391257       3.48725356E-04
  0.707070708      0.300000012      0.980553687      0.973213613      0.354163468      -1.35449751E-04  0.300449431       3.41370702E-04
  0.696969688      0.300000012      0.980612099      0.973287702      0.354245752      -1.33349735E-04  0.300516754       3.34042124E-04
  0.686868668      0.300000012      0.980695069      0.973396063      0.354324788      -1.29848253E-04  0.300579756       3.26923095E-04
  0.676767647      0.300000012      0.980817139      0.973558247      0.354384989      -1.24531158E-04  0.300624490       3.19299288E-04
  0.666666687      0.300000012      0.980991423      0.973793149      0.354410112      -1.16586241E-04  0.300636262       3.11824493E-04
  0.656565666      0.300000012      0.981229544      0.974116862      0.354383022      -1.05166284E-04  0.300599843       3.04377638E-04
  0.646464646      0.300000012      0.981541097      0.974542439      0.354286373      -8.91708187E-05  0.300499856       2.96754763E-04
  0.636363626      0.300000012      0.981933057      0.975079954      0.354103148      -6.76728014E-05  0.300321609       2.89232470E-04
  0.626262605      0.300000012      0.982409418      0.975734651      0.353816092      -3.96820687E-05  0.300050229       2.81396322E-04
  0.616161644      0.300000012      0.982971132      0.976508379      0.353409618      -4.52530549E-06  0.299672395       2.73820013E-04
  0.606060624      0.300000012      0.983616173      0.977397859      0.352870047       3.80313977E-05  0.299176812       2.65828334E-04
  0.595959604      0.300000012      0.984339535      0.978396356      0.352186114       8.78985811E-05  0.298554242       2.57750042E-04
  0.585858583      0.300000012      0.985133708      0.979493439      0.351349920       1.44455640E-04  0.297798634       2.49324366E-04
  0.575757563      0.300000012      0.985988379      0.980675280      0.350357473       2.06466895E-04  0.296907216       2.41089147E-04
  0.565656543      0.300000012      0.986891568      0.981924951      0.349209785       2.72225705E-04  0.295881689       2.32731458E-04
  0.555555582      0.300000012      0.987829626      0.983223677      0.347913146       3.39498045E-04  0.294728309       2.24420335E-04
  0.545454562      0.300000012      0.988787472      0.984550595      0.346479744       4.05533588E-04  0.293458432       2.16220971E-04
  0.535353541      0.300000012      0.989749432      0.985883772      0.344927758       4.68071288E-04  0.292088360       2.08018813E-04
  0.525252521      0.300000012      0.990699768      0.987201631      0.343279511       5.26043004E-04  0.290638030       2.00270209E-04
  0.515151501      0.300000012      0.991624177      0.988483965      0.341557384       5.81343658E-04  0.289127231       1.92679465E-04
  0.505050480      0.300000012      0.992509782      0.989712834      0.339779794       6.37837918E-04  0.287572324       1.85340643E-04
  0.494949490      0.300000012      0.993343890      0.990871072      0.337960839       6.97951706E-04  0.285985827       1.78852584E-04
  0.484848499      0.300000012      0.994114220      0.991940618      0.336115628       7.61146075E-04  0.284381360       1.72394561E-04
  0.474747479      0.300000012      0.994808853      0.992904902      0.334258914       8.29449506E-04  0.282771915       1.66120706E-04
  0.464646459      0.300000012      0.995417655      0.993749678      0.332398653       9.06837813E-04  0.281164855       1.60075491E-04
  0.454545468      0.300000012      0.995930970      0.994461179      0.330540478       9.92469839E-04  0.279565334       1.54025154E-04
  0.444444448      0.300000012      0.996338308      0.995024443      0.328694999       1.08169229E-03  0.277982831       1.47801824E-04
  0.434343427      0.300000012      0.996627808      0.995422900      0.326880902       1.16887642E-03  0.276433706       1.41473487E-04
  0.424242437      0.300000012      0.996786773      0.995638669      0.325124115       1.25008065E-03  0.274940461       1.34898233E-04
  0.414141417      0.300000012      0.996801794      0.995653093      0.323455155       1.32331671E-03  0.273529440       1.28267915E-04
  0.404040396      0.300000012      0.996659577      0.995447576      0.321905375       1.38776400E-03  0.272227794       1.21615594E-04
  0.393939406      0.300000012      0.996347964      0.995004952      0.320505142       1.44393439E-03  0.271061778       1.14610302E-04
  0.383838385      0.300000012      0.995855808      0.994310498      0.319282591       1.49217283E-03  0.270055592       1.08165666E-04
  0.373737365      0.300000012      0.995173275      0.993350089      0.318264008       1.53264753E-03  0.269232064       1.01684127E-04
  0.363636374      0.300000012      0.994291484      0.992112100      0.317473412       1.56530039E-03  0.268611819       9.56393778E-05
  0.353535354      0.300000012      0.993204117      0.990587831      0.316931903       1.59044622E-03  0.268213212       8.99969600E-05
  0.343434334      0.300000012      0.991907120      0.988772511      0.316656500       1.60878256E-03  0.268050909       8.51410441E-05
  0.333333343      0.300000012      0.990400374      0.986665785      0.316659749       1.61996833E-03  0.268135875       8.05109739E-05
  0.323232323      0.300000012      0.988687217      0.984272718      0.316949725       1.62360247E-03  0.268474996       7.59321265E-05
  0.313131303      0.300000012      0.986775219      0.981604993      0.317529798       1.61943026E-03  0.269070983       7.18701631E-05
  0.303030312      0.300000012      0.984677732      0.978681624      0.318397075       1.60721620E-03  0.269921154       6.83497638E-05
  0.292929292      0.300000012      0.982413113      0.975528538      0.319542199       1.58702664E-03  0.271017045       6.48349524E-05
  0.282828271      0.300000012      0.980005562      0.972179949      0.320948869       1.55897916E-03  0.272344053       6.14570454E-05
  0.272727281      0.300000012      0.977484047      0.968676507      0.322593778       1.52366527E-03  0.273881227       5.80418855E-05
  0.262626261      0.300000012      0.974881887      0.965065539      0.324446499       1.48189859E-03  0.275601268       5.53000718E-05
  0.252525240      0.300000012      0.972236633      0.961398423      0.326470673       1.43456063E-03  0.277471691       5.20702451E-05
  0.242424250      0.300000012      0.969587386      0.957730055      0.328625083       1.38277642E-03  0.279455394       4.92073596E-05
  0.232323229      0.300000012      0.966974258      0.954115450      0.330865145       1.32758031E-03  0.281512380       4.61805612E-05
  0.222222224      0.300000012      0.964436293      0.950608492      0.333145022       1.27004040E-03  0.283601403       4.30960208E-05
  0.212121218      0.300000012      0.962010384      0.947259724      0.335419476       1.21105195E-03  0.285681695       4.00617719E-05
  0.202020198      0.300000012      0.959729671      0.944114745      0.337645799       1.15135021E-03  0.287714630       3.75472009E-05
  0.191919193      0.300000012      0.957622766      0.941211820      0.339785546       1.09158759E-03  0.289665431       3.48296016E-05
  0.181818187      0.300000012      0.955713212      0.938583016      0.341805220       1.03209529E-03  0.291503727       3.23560089E-05
  0.171717167      0.300000012      0.954018772      0.936252177      0.343677878       9.73143615E-04  0.293204993       3.03164124E-05
  0.161616161      0.300000012      0.952551663      0.934235692      0.345382690       9.14996723E-04  0.294750214       2.87592411E-05
  0.151515156      0.300000012      0.951319873      0.932543099      0.346905023       8.57624924E-04  0.296126127       2.69785523E-05
  0.141414136      0.300000012      0.950325727      0.931177855      0.348236263       8.01012444E-04  0.297324747       2.56802887E-05
  0.131313130      0.300000012      0.949568033      0.930137455      0.349373162       7.45078898E-04  0.298343092       2.43932009E-05
  0.121212125      0.300000012      0.949042320      0.929415345      0.350316823       6.89912005E-04  0.299182177       2.30576843E-05
  0.111111112      0.300000012      0.948741436      0.929001153      0.351072252       6.35495293E-04  0.299846500       2.12993473E-05
  0.101010099      0.300000012      0.948656321      0.928882241      0.351646572       5.82183478E-04  0.300342709       1.88983977E-05
   9.09090936E-02  0.300000012      0.948775947      0.929043353      0.352048010       5.30465564E-04  0.300678372       1.57393515E-05
   8.08080807E-02  0.300000012      0.949088156      0.929468870      0.352284461       4.81387717E-04  0.300860882       1.30552799E-05
   7.07070678E-02  0.300000012      0.949580669      0.930141866      0.352361619       4.36338945E-04  0.300895900       1.05742365E-05
   6.06060624E-02  0.300000012      0.950240552      0.931045294      0.352282912       3.96615127E-04  0.300787091       8.78982246E-06
   5.05050495E-02  0.300000012      0.951055229      0.932161629      0.352049232       3.63086117E-04  0.300536275       7.34813511E-06
   4.04040404E-02  0.300000012      0.952011287      0.933473051      0.351661325       3.35724268E-04  0.300144881       6.54160976E-06
   3.03030312E-02  0.300000012      0.953095615      0.934960902      0.351122826       3.12712829E-04  0.299617201       5.49852848E-06
   2.02020202E-02  0.300000012      0.954292834      0.936604083      0.350445330       2.90123222E-04  0.298964202       3.96929681E-06
   1.01010101E-02  0.300000012      0.955580294      0.938372076      0.349658936       2.57596344E-04  0.298213124       2.37114727E-06
   0.00000000      0.289655179      0.956638157      0.939825356      0.348894209       2.04418218E-04  0.297495306       8.34465027E-07
   0.00000000      0.279310346      0.956698120      0.939907789      0.348671883       2.38831068E-04  0.297302037       8.28877091E-07
   0.00000000      0.268965513      0.956779003      0.940018952      0.348386973       2.81633082E-04  0.297054112       7.48783350E-07
   0.00000000      0.258620679      0.956882179      0.940160811      0.348031640       3.28350841E-04  0.296744764       6.91041350E-07
   0.00000000      0.248275861      0.957008362      0.940334439      0.347601563       3.77875753E-04  0.296370268       7.15255737E-07
   0.00000000      0.237931028      0.957158506      0.940540731      0.347093374       4.29688429E-04  0.295927793       4.41446900E-07
   0.00000000      0.227586210      0.957332611      0.940780103      0.346504062       4.83426498E-04  0.295414686       2.99885869E-07
   0.00000000      0.217241377      0.957530737      0.941052854      0.345831335       5.38703287E-04  0.294829011       5.08502126E-07
   0.00000000      0.206896558      0.957753241      0.941358864      0.345073134       5.94895682E-04  0.294169039       2.75671482E-07
   0.00000000      0.196551725      0.957999527      0.941697836      0.344228655       6.50964445E-04  0.293434143       3.31550837E-07
   0.00000000      0.186206892      0.958268940      0.942068398      0.343298644       7.05650134E-04  0.292625070       1.71363354E-07
   0.00000000      0.175862074      0.958560050      0.942469060      0.342285305       7.57347036E-04  0.291743636       9.68575478E-08
   0.00000000      0.165517241      0.958870590      0.942896485      0.341193736       8.03913223E-04  0.290794551       1.86264515E-09
   0.00000000      0.155172408      0.959197700      0.943346918      0.340031356       8.43284128E-04  0.289784163       1.43423676E-07
   0.00000000      0.144827589      0.959537685      0.943815172      0.338808984       8.72883829E-04  0.288722008       2.57045031E-07
   0.00000000      0.134482756      0.959886253      0.944295049      0.337540358       8.90031049E-04  0.287620068       9.87201929E-08
   0.00000000      0.124137931      0.960237980      0.944779694      0.336243063       8.92104523E-04  0.286493659       2.86847353E-07
   0.00000000      0.113793105      0.960587263      0.945260942      0.334937900       8.76551319E-04  0.285360813       3.78116965E-07
   0.00000000      0.103448279      0.960927546      0.945729852      0.333648920       8.41097790E-04  0.284242362       4.17232513E-07
   0.00000000       9.31034461E-02  0.961252451      0.946177542      0.332402349       7.83874653E-04  0.283161163       4.28408384E-07
   0.00000000       8.27586204E-02  0.961554825      0.946594357      0.331227005       7.03513622E-04  0.282142013       5.79282641E-07
   0.00000000       7.24137947E-02  0.961828053      0.946970999      0.330152720       5.99757477E-04  0.281210780       6.35161996E-07
   0.00000000       6.20689653E-02  0.962065756      0.947298646      0.329209298       4.72942571E-04  0.280393153       5.77419996E-07
   0.00000000       5.17241396E-02  0.962261856      0.947569013      0.328425974       3.24186985E-04  0.279714465       6.64964318E-07
   0.00000000       4.13793102E-02  0.962410748      0.947774470      0.327830404       1.56260081E-04  0.279198438       7.99074769E-07
   0.00000000       3.10344826E-02  0.962508261      0.947908998      0.327446997      -2.60919733E-05  0.278866231       8.81031156E-07
   0.00000000       2.06896551E-02  0.962551117      0.947968245      0.327295870      -2.14585278E-04  0.278735071       1.04866922E-06
   0.00000000       1.03448275E-02  0.962538242      0.947950423      0.327390701      -3.93890106E-04  0.278816730       1.02445483E-06
   1.01942774E-02  -1.06002917E-05  0.962910593      0.948464334      0.327169448      -6.25245564E-04  0.278606981       1.46776438E-06
   2.03885511E-02  -4.05888240E-05  0.964022696      0.950000226      0.326323003      -1.08946965E-03  0.277822793       3.54461372E-06
   3.05827484E-02  -8.74972393E-05  0.965037048      0.951401830      0.325488687      -1.48442679E-03  0.277055293       5.52274287E-06
   4.07768898E-02  -1.49138228E-04  0.965957701      0.952674508      0.324660271      -1.81019853E-03  0.276298612       7.33695924E-06
   5.09709269E-02  -2.23550553E-04  0.966791928      0.953827798      0.323825568      -2.07375642E-03  0.275541842       8.63336027E-06
   6.11648858E-02  -3.08956922E-04  0.967547596      0.954872847      0.322973400      -2.28278409E-03  0.274774820       9.86456871E-06
   7.13587478E-02  -4.03728453E-04  0.968233168      0.955821157      0.322096825      -2.44424585E-03  0.273991168       1.08331442E-05
   8.15525427E-02  -5.06357115E-04  0.968856812      0.956684053      0.321193516      -2.56411033E-03  0.273188323       1.17123127E-05
   9.17462707E-02  -6.15430705E-04  0.969425678      0.957471609      0.320264876      -2.64639943E-03  0.272366971       1.28671527E-05
  0.101939946      -7.29613879E-04  0.969946206      0.958192647      0.319314897      -2.69430736E-03  0.271530122       1.41039491E-05
  0.112133577      -8.47629446E-04  0.970423639      0.958854020      0.318348885      -2.70958338E-03  0.270682067       1.51395798E-05
  0.122327171      -9.68243345E-04  0.970861197      0.959460676      0.317373335      -2.69333250E-03  0.269828051       1.64974481E-05
  0.132520750      -1.09024998E-03  0.971260786      0.960014939      0.316395074      -2.64604948E-03  0.268973708       1.79279596E-05
  0.142714337      -1.21245917E-03  0.971622646      0.960517347      0.315421611      -2.56780931E-03  0.268125445       1.96117908E-05
  0.152907923      -1.33368257E-03  0.971945822      0.960966408      0.314461112      -2.45831069E-03  0.267290235       2.14613974E-05
  0.163101539      -1.45272142E-03  0.972227871      0.961359143      0.313521832      -2.31694337E-03  0.266475230       2.38530338E-05
  0.173295200      -1.56835280E-03  0.972466171      0.961691022      0.312611789      -2.14275136E-03  0.265687406       2.59578228E-05
  0.183488905      -1.67931605E-03  0.972656727      0.961957276      0.311738968      -1.93439366E-03  0.264933795       2.84640118E-05
  0.193682685      -1.78429752E-03  0.972796500      0.962153375      0.310909599      -1.69003196E-03  0.264219820       3.11341137E-05
  0.203876525      -1.88191328E-03  0.972882569      0.962275445      0.310128063      -1.40725181E-03  0.263549417       3.41301784E-05
  0.214070454      -1.97069068E-03  0.972913265      0.962321043      0.309395880      -1.08301896E-03  0.262924016       3.72799113E-05
  0.224264458      -2.04904471E-03  0.972888172      0.962289751      0.308711469      -7.13447400E-04  0.262342364       4.09223139E-05
  0.234458551      -2.11525219E-03  0.972808301      0.962183058      0.308070034      -2.93891761E-04  0.261800468       4.49465588E-05
  0.244652733      -2.16741930E-03  0.972676456      0.962004483      0.307463437       1.81270065E-04  0.261291474       4.90816310E-05
  0.254846990      -2.20344099E-03  0.972496927      0.961759984      0.306880593       7.19033123E-04  0.260805875       5.33862039E-05
  0.265041292      -2.22095218E-03  0.972274780      0.961456895      0.306307584       1.32791232E-03  0.260331929       5.80381602E-05
  0.275235593      -2.21726228E-03  0.972016811      0.961104155      0.305727899       2.01836042E-03  0.259855658       6.25364482E-05
  0.285429865      -2.18927371E-03  0.971730292      0.960712552      0.305122852       2.80333636E-03  0.259361297       6.77239150E-05
  0.295624018      -2.13337177E-03  0.971424103      0.960294008      0.304470032       3.69958649E-03  0.258830190       7.32094049E-05
  0.305817962      -2.04527588E-03  0.971107900      0.959862292      0.303743958       4.72811610E-03  0.258241177       7.93412328E-05
  0.316011488      -1.91983546E-03  0.970792592      0.959432065      0.302913785       5.91683900E-03  0.257569224       8.56742263E-05
  0.326204360      -1.75073801E-03  0.970490396      0.959020734      0.301942587       7.30252545E-03  0.256784618       9.27112997E-05
  0.336396307      -1.53008103E-03  0.970215619      0.958647549      0.300784051       8.93538818E-03  0.255850881       9.99309123E-05
  0.346586645      -1.24772848E-03  0.969984472      0.958335459      0.299379468       1.08862333E-02  0.254723221       1.07880682E-04
  0.356774658      -8.90274358E-04  0.969815791      0.958111107      0.297653198       1.32584153E-02  0.253345728       1.17240474E-04
  0.366958946      -4.39326104E-04  0.969733775      0.958007872      0.295505971       1.62291136E-02  0.251650572       1.27907842E-04
  0.377137065       1.33766516E-04  0.969782650      0.958088338      0.292848408       2.05862541E-02  0.249622479       1.41358003E-04
  0.387299746       9.32033930E-04  0.969865382      0.958218634      0.290264547       2.71994602E-02  0.247885868       1.57911330E-04
  0.397434235       2.03104783E-03  0.969762325      0.958095312      0.288410664       3.56978849E-02  0.247102469       1.77975744E-04
  0.407523632       3.48527054E-03  0.969384968      0.957600057      0.287554294       4.59942557E-02  0.247626737       2.05807388E-04
  0.417543113       5.36030158E-03  0.968631685      0.956599176      0.288085341       5.85477278E-02  0.250011474       2.48400494E-04
  0.427456856       7.73026003E-03  0.967255116      0.954766333      0.290894300       7.39836544E-02  0.255331039       3.21567059E-04
  0.437217921       1.06651187E-02  0.964791000      0.951488078      0.297688812       9.28727612E-02  0.265388608       4.53164801E-04
  0.446780443       1.41935814E-02  0.960423708      0.945687413      0.311472803      0.114902824      0.282761216       6.89810142E-04
  0.456144422       1.82216074E-02  0.952913940      0.935707867      0.336640149      0.136626139      0.309862226       1.07099488E-03
  0.465438336       2.24102195E-02  0.941262186      0.920195043      0.376140893      0.148220152      0.345577419       1.57737359E-03
  0.474928796       2.61229333E-02  0.926960707      0.901161432      0.423432082      0.135832220      0.381169587       2.11090222E-03
  0.484786808       2.86871437E-02  0.914851606      0.885166883      0.461160123       9.59367678E-02  0.404716104       2.61168927E-03
  0.494905144       2.98680626E-02  0.908713400      0.877345622      0.477291286       4.37629148E-02  0.412254632       3.16145271E-03
  0.505094886       2.98680626E-02  0.907460988      0.876236558      0.474895030      -7.08822627E-03  0.408493638       3.82739305E-03
  0.515213192       2.86871418E-02  0.908220708      0.878168643      0.458247244      -5.84559813E-02  0.397052318       4.85840440E-03
  0.525071204       2.61229314E-02  0.911074340      0.883303761      0.426710486     -0.107104644      0.377622694       6.29692897E-03
  0.534561634       2.24102195E-02  0.917667627      0.893464327      0.385536253     -0.136777684      0.350387186       7.63912126E-03
  0.543855608       1.82216056E-02  0.927351296      0.907448709      0.345484108     -0.138593584      0.318037033       8.47367942E-03
  0.553219557       1.41935805E-02  0.936828375      0.920804262      0.314125985     -0.121011771      0.286968142       8.84947553E-03
  0.562782109       1.06651178E-02  0.943641841      0.930273652      0.293234825      -9.80416685E-02  0.263184607       8.93553905E-03
  0.572543144       7.73025956E-03  0.947723687      0.935849905      0.280837715      -7.73081928E-02  0.247736737       8.86905938E-03
  0.582456887       5.36030112E-03  0.949933827      0.938804567      0.274093807      -6.04754910E-02  0.238625035       8.76017846E-03
  0.592476368       3.48527008E-03  0.950982094      0.940192342      0.270881027      -4.70802672E-02  0.233697906       8.69322941E-03