 title = "grid"
                                   variables = "x","y","rho","P","u","v","M","S"
 zone n=        3000  e =        5742  et=quadrilateral, f=fepoint
   0.00000000       0.00000000      0.962340474      0.947676957      0.325964391      -2.02581534E-04  0.277613401       1.78813934E-07
   1.00000000       0.00000000      0.946107984      0.933338761      0.316908687       4.30427521E-04  0.269662917       8.57094303E-03
   1.00000000      0.300000012      0.950391233      0.931714594      0.377647698      -2.18661837E-04  0.322353691       5.05426899E-04
   0.00000000      0.300000012      0.958533764      0.942433774      0.346281081      -1.15185590E-04  0.295150191       1.06915832E-06
   1.00000000       1.03448275E-02  0.947244883      0.933295965      0.322551280       2.65462033E-04  0.274635285       6.84373453E-03
   1.00000000       2.06896551E-02  0.948612034      0.933293760      0.329673320       2.48228571E-05  0.280902058       4.82225791E-03
   1.00000000       3.10344826E-02  0.949519217      0.933269620      0.335477293      -2.40544556E-04  0.285987824       3.45816463E-03
   1.00000000       4.13793102E-02  0.950111210      0.933226347      0.340482444      -5.14050538E-04  0.290352076       2.53919140E-03
   1.00000000       5.17241396E-02  0.950490057      0.933166802      0.344869912      -7.83722848E-04  0.294161975       1.91728584E-03
   1.00000000       6.20689653E-02  0.950722456      0.933092892      0.348729402      -1.04013318E-03  0.297502697       1.49578042E-03
   1.00000000       7.24137947E-02  0.950853825      0.933007360      0.352126062      -1.27604033E-03  0.300435573       1.21068582E-03
   1.00000000       8.27586204E-02  0.950916290      0.932912111      0.355116248      -1.48576591E-03  0.303012878       1.01661496E-03
   1.00000000       9.31034461E-02  0.950930774      0.932809889      0.357752204      -1.66533689E-03  0.305281758       8.85728747E-04
   1.00000000      0.103448279      0.950912893      0.932702780      0.360082150      -1.81183661E-03  0.307285309       7.97249377E-04
   1.00000000      0.113793105      0.950874090      0.932593286      0.362150490      -1.92392652E-03  0.309062660       7.37009570E-04
   1.00000000      0.124137931      0.950821936      0.932483315      0.363996714      -2.00095261E-03  0.310648382       6.95861876E-04
   1.00000000      0.134482756      0.950762689      0.932375014      0.365655035      -2.04339274E-03  0.312072158       6.66931272E-04
   1.00000000      0.144827589      0.950700104      0.932269812      0.367153287      -2.05227220E-03  0.313358307       6.46287575E-04
   1.00000000      0.155172408      0.950637043      0.932169080      0.368514240      -2.02940451E-03  0.314526200       6.31049275E-04
   1.00000000      0.165517241      0.950576067      0.932074308      0.369755030      -1.97679759E-03  0.315590888       6.19210303E-04
   1.00000000      0.175862074      0.950518847      0.931986094      0.370889455      -1.89693621E-03  0.316564173       6.08816743E-04
   1.00000000      0.186206892      0.950466394      0.931905091      0.371927917      -1.79265637E-03  0.317455113       5.99157065E-04
   1.00000000      0.196551725      0.950419247      0.931831777      0.372877449      -1.66693074E-03  0.318269700       5.89944422E-04
   1.00000000      0.206896558      0.950378418      0.931766570      0.373742878      -1.52280764E-03  0.319012165       5.80061227E-04
   1.00000000      0.217241377      0.950344086      0.931709588      0.374526978      -1.36383914E-03  0.319684893       5.69541007E-04
   1.00000000      0.227586210      0.950315535      0.931660771      0.375230879      -1.19372178E-03  0.320288807       5.59179112E-04
   1.00000000      0.237931028      0.950293362      0.931620240      0.375853986      -1.01637770E-03  0.320823431       5.48319891E-04
   1.00000000      0.248275861      0.950277805      0.931588233      0.376394778      -8.36683146E-04  0.321287572       5.36866486E-04
   1.00000000      0.258620679      0.950267851      0.931564748      0.376850188      -6.60258811E-04  0.321678370       5.26351854E-04
   1.00000000      0.268965513      0.950263679      0.931550443      0.377215207      -4.94649401E-04  0.321991473       5.17172739E-04
   1.00000000      0.279310346      0.950265706      0.931546450      0.377482414      -3.50353308E-04  0.322220504       5.09863719E-04
   1.00000000      0.289655179      0.950276375      0.931556523      0.377638489      -2.44466501E-04  0.322353721       5.04944474E-04
  0.989898980      0.300000012      0.949898899      0.931034386      0.377823383      -2.28550110E-04  0.322537899       5.00544906E-04
  0.979797959      0.300000012      0.948788941      0.929503024      0.378235936      -2.68550240E-04  0.322967112       4.91283834E-04
  0.969696999      0.300000012      0.947778523      0.928109407      0.378594458      -2.99280131E-04  0.323343575       4.82561067E-04
  0.959595978      0.300000012      0.946890354      0.926884413      0.378864586      -3.24189808E-04  0.323636293       4.74331900E-04
  0.949494958      0.300000012      0.946144104      0.925854802      0.379020005      -3.45428882E-04  0.323821366       4.66683879E-04
  0.939393938      0.300000012      0.945555389      0.925041616      0.379041314      -3.64491047E-04  0.323881060       4.59367409E-04
  0.929292917      0.300000012      0.945134878      0.924459279      0.378916055      -3.82419064E-04  0.323804021       4.52438369E-04
  0.919191897      0.300000012      0.944888353      0.924115956      0.378637940      -4.00008808E-04  0.323584259       4.46163118E-04
  0.909090936      0.300000012      0.944816589      0.924012125      0.378206313      -4.17858479E-04  0.323221296       4.40174714E-04
  0.898989916      0.300000012      0.944915771      0.924142897      0.377626270      -4.36547183E-04  0.322719693       4.34676185E-04
  0.888888896      0.300000012      0.945178211      0.924497187      0.376907170      -4.56417620E-04  0.322088152       4.29211184E-04
  0.878787875      0.300000012      0.945592403      0.925059438      0.376062036      -4.77578724E-04  0.321338654       4.23850492E-04
  0.868686855      0.300000012      0.946144402      0.925810635      0.375106454      -5.00024704E-04  0.320485592       4.18566167E-04
  0.858585835      0.300000012      0.946818173      0.926728964      0.374057800      -5.23670344E-04  0.319545031       4.13373113E-04
  0.848484874      0.300000012      0.947596371      0.927790761      0.372934520      -5.48382173E-04  0.318533927       4.08226624E-04
  0.838383853      0.300000012      0.948461056      0.928970933      0.371755183      -5.73908561E-04  0.317469686       4.02580947E-04
  0.828282833      0.300000012      0.949393272      0.930244207      0.370538235      -5.99960971E-04  0.316369206       3.96877527E-04
  0.818181813      0.300000012      0.950374424      0.931584775      0.369301766      -6.26333989E-04  0.315249354       3.90831381E-04
  0.808080792      0.300000012      0.951386750      0.932968378      0.368062913      -6.52807881E-04  0.314125955       3.84457409E-04
  0.797979772      0.300000012      0.952412188      0.934370637      0.366838247      -6.79280958E-04  0.313014358       3.78213823E-04
  0.787878811      0.300000012      0.953434765      0.935769022      0.365642875      -7.05747574E-04  0.311928481       3.71387228E-04
  0.777777791      0.300000012      0.954438984      0.937142491      0.364491224      -7.32139219E-04  0.310881764       3.64277512E-04
  0.767676771      0.300000012      0.955411136      0.938472331      0.363396823      -7.58654496E-04  0.309886366       3.57016921E-04
  0.757575750      0.300000012      0.956338823      0.939741373      0.362372100      -7.85357493E-04  0.308953732       3.49631533E-04
  0.747474730      0.300000012      0.957211077      0.940935075      0.361428350      -8.12317070E-04  0.308094025       3.42709944E-04
  0.737373710      0.300000012      0.958019733      0.942041039      0.360574871      -8.39486660E-04  0.307315856       3.35235149E-04
  0.727272749      0.300000012      0.958757818      0.943050146      0.359819919      -8.66834715E-04  0.306626379       3.27669084E-04
  0.717171729      0.300000012      0.959419966      0.943955243      0.359169215      -8.94085504E-04  0.306030780       3.20404768E-04
  0.707070708      0.300000012      0.960003376      0.944752038      0.358626455      -9.20838851E-04  0.305532366       3.13047320E-04
  0.696969688      0.300000012      0.960507214      0.945439160      0.358192354      -9.46458371E-04  0.305131704       3.05583701E-04
  0.686868668      0.300000012      0.960932434      0.946017981      0.357864559      -9.70269088E-04  0.304826707       2.97954306E-04
  0.676767647      0.300000012      0.961281836      0.946492255      0.357637584      -9.91527573E-04  0.304612458       2.90203840E-04
  0.666666687      0.300000012      0.961560726      0.946869314      0.357502282      -1.00940932E-03  0.304480791       2.82410532E-04
  0.656565666      0.300000012      0.961776316      0.947159529      0.357446641      -1.02317974E-03  0.304420859       2.74987891E-04
  0.646464646      0.300000012      0.961938560      0.947375715      0.357455373      -1.03223475E-03  0.304419279       2.67077237E-04
  0.636363626      0.300000012      0.962059259      0.947534502      0.357510597      -1.03604712E-03  0.304459929       2.59010121E-04
  0.626262605      0.300000012      0.962152302      0.947654963      0.357592434      -1.03439018E-03  0.304524958       2.50691548E-04
  0.616161644      0.300000012      0.962233603      0.947759211      0.357679546      -1.02716975E-03  0.304595262       2.42443755E-04
  0.606060624      0.300000012      0.962320983      0.947871983      0.357749104      -1.01387687E-03  0.304650158       2.34248117E-04
  0.595959604      0.300000012      0.962433875      0.948020101      0.357777685      -9.94402915E-04  0.304668516       2.26302072E-04
  0.585858583      0.300000012      0.962592125      0.948230803      0.357742280      -9.69161803E-04  0.304629505       2.18397006E-04
  0.575757563      0.300000012      0.962815344      0.948531270      0.357621074      -9.38533107E-04  0.304513276       2.10596249E-04
  0.565656543      0.300000012      0.963122666      0.948948145      0.357394576      -9.03009146E-04  0.304302067       2.03132629E-04
  0.555555582      0.300000012      0.963531256      0.949505150      0.357046038      -8.63095396E-04  0.303980500       1.96132809E-04
  0.545454562      0.300000012      0.964055777      0.950222731      0.356561393      -8.19394540E-04  0.303535700       1.89704821E-04
  0.535353541      0.300000012      0.964708269      0.951117456      0.355928689      -7.72403844E-04  0.302956969       1.83671713E-04
  0.525252521      0.300000012      0.965497494      0.952201426      0.355137318      -7.23739679E-04  0.302234739       1.77759677E-04
  0.515151501      0.300000012      0.966428578      0.953481793      0.354178429      -6.75369112E-04  0.301361352       1.72117725E-04
  0.505050480      0.300000012      0.967502534      0.954960287      0.353047073      -6.29313523E-04  0.300332755       1.66600570E-04
  0.494949490      0.300000012      0.968716860      0.956633389      0.351742774      -5.85964532E-04  0.299148917       1.61003321E-04
  0.484848499      0.300000012      0.970066130      0.958493948      0.350269288      -5.44891693E-04  0.297813624       1.55413523E-04
  0.474747479      0.300000012      0.971542180      0.960530877      0.348633587      -5.06208104E-04  0.296333551       1.49702653E-04
  0.464646459      0.300000012      0.973133862      0.962728798      0.346847683      -4.70634550E-04  0.294719905       1.43590383E-04
  0.454545468      0.300000012      0.974828541      0.965071023      0.344928831      -4.38382063E-04  0.292988330       1.37574039E-04
  0.444444448      0.300000012      0.976613104      0.967539430      0.342898160      -4.09193541E-04  0.291157782       1.31530687E-04
  0.434343427      0.300000012      0.978474140      0.970115304      0.340778321      -3.83152656E-04  0.289248586       1.24957412E-04
  0.424242437      0.300000012      0.980396569      0.972778857      0.338592023      -3.60582082E-04  0.287280887       1.18916854E-04
  0.414141417      0.300000012      0.982365072      0.975508630      0.336361259      -3.41492123E-04  0.285274595       1.12913549E-04
  0.404040396      0.300000012      0.984364748      0.978283942      0.334107161      -3.25993926E-04  0.283248425       1.06994994E-04
  0.393939406      0.300000012      0.986380100      0.981083632      0.331849307      -3.13686382E-04  0.281220019       1.01328362E-04
  0.383838385      0.300000012      0.988396466      0.983887732      0.329605311      -3.04177840E-04  0.279204965       9.64542851E-05
  0.373737365      0.300000012      0.990400136      0.986676455      0.327391475      -2.97036459E-04  0.277218074       9.15979035E-05
  0.363636374      0.300000012      0.992377102      0.989430845      0.325222790      -2.91761244E-04  0.275272459       8.75093974E-05
  0.353535354      0.300000012      0.994313955      0.992131829      0.323112637      -2.87820963E-04  0.273380250       8.39219429E-05
  0.343434334      0.300000012      0.996197164      0.994759977      0.321073860      -2.84965732E-04  0.271553010       8.03223811E-05
  0.333333343      0.300000012      0.998012722      0.997295797      0.319119185      -2.82802503E-04  0.269801974       7.70876650E-05
  0.323232323      0.300000012      0.999746084      0.999718904      0.317261696      -2.81002402E-04  0.268138826       7.44018835E-05
  0.313131303      0.300000012       1.00138223       1.00200760      0.315514445      -2.79214437E-04  0.266575277       7.18431547E-05
  0.303030312      0.300000012       1.00290585       1.00413966      0.313890487      -2.76926090E-04  0.265122950       6.88305590E-05
  0.292929292      0.300000012       1.00429964       1.00609171      0.312403262      -2.73737824E-04  0.263793796       6.67013228E-05
  0.282828271      0.300000012       1.00554633       1.00783873      0.311066300      -2.69251206E-04  0.262599945       6.47641718E-05
  0.272727281      0.300000012       1.00662792       1.00935447      0.309893638      -2.63072259E-04  0.261554033       6.24542590E-05
  0.262626261      0.300000012       1.00752449       1.01061118      0.308899999      -2.55009800E-04  0.260669231       6.04842789E-05
  0.252525240      0.300000012       1.00821555       1.01157975      0.308100671      -2.45025003E-04  0.259959340       5.84376976E-05
  0.242424250      0.300000012       1.00868034       1.01223075      0.307511240      -2.32994353E-04  0.259438306       5.65727241E-05
  0.232323229      0.300000012       1.00889862       1.01253557      0.307147801      -2.19071619E-04  0.259120733       5.47091477E-05
  0.222222224      0.300000012       1.00885057       1.01246619      0.307025671      -2.03509684E-04  0.259020358       5.28506935E-05
  0.212121218      0.300000012       1.00851822       1.01199782      0.307159454      -1.86741629E-04  0.259150505       5.13382256E-05
  0.202020198      0.300000012       1.00788736       1.01111019      0.307561666      -1.69146413E-04  0.259522498       4.98606823E-05
  0.191919193      0.300000012       1.00694716       1.00978875      0.308241934      -1.51368746E-04  0.260145187       4.88334335E-05
  0.181818187      0.300000012       1.00569260       1.00802636      0.309205651      -1.33782189E-04  0.261023790       4.72473912E-05
  0.171717167      0.300000012       1.00412500       1.00582528      0.310453117      -1.16998424E-04  0.262158930       4.51917294E-05
  0.161616161      0.300000012       1.00225222       1.00319791      0.311978281      -1.01618709E-04  0.263545513       4.32130182E-05
  0.151515156      0.300000012       1.00009060       1.00016737      0.313767880      -8.80162333E-05  0.265172064       4.05326355E-05
  0.141414136      0.300000012      0.997663796      0.996768296      0.315800935      -7.65278528E-05  0.267020375       3.75896925E-05
  0.131313130      0.300000012      0.995003223      0.993045151      0.318048477      -6.72473034E-05  0.269064903       3.38745303E-05
  0.121212125      0.300000012      0.992146194      0.989051580      0.320473731      -6.00676467E-05  0.271273136       2.99378298E-05
  0.111111112      0.300000012      0.989135206      0.984848142      0.323033005      -5.47238014E-05  0.273606300       2.61282548E-05
  0.101010099      0.300000012      0.986016273      0.980500042      0.325676531      -5.08147423E-05  0.276020080       2.27568671E-05
   9.09090936E-02  0.300000012      0.982836783      0.976073802      0.328351289      -4.82361647E-05  0.278467208       2.00523064E-05
   8.08080807E-02  0.300000012      0.979644001      0.971634686      0.331003428      -4.71288549E-05  0.280899614       1.70823187E-05
   7.07070678E-02  0.300000012      0.976482570      0.967244923      0.333581269      -4.81941315E-05  0.283270687       1.41570345E-05
   6.06060624E-02  0.300000012      0.973393023      0.962960780      0.336038649      -5.26406220E-05  0.285538733       1.17057934E-05
   5.05050495E-02  0.300000012      0.970411301      0.958831131      0.338336647      -6.17752739E-05  0.287668228       9.06549394E-06
   4.04040404E-02  0.300000012      0.967567146      0.954896867      0.340444624      -7.65770237E-05  0.289630830       6.73346221E-06
   3.03030312E-02  0.300000012      0.964884579      0.951190710      0.342339814      -9.76297961E-05  0.291405201       4.82425094E-06
   2.02020202E-02  0.300000012      0.962382078      0.947737336      0.344004929      -1.24194441E-04  0.292974919       3.33786011E-06
   1.01010101E-02  0.300000012      0.960076809      0.944559395      0.345420778      -1.49569736E-04  0.294322044       2.05449760E-06
   0.00000000      0.289655179      0.958403587      0.942254603      0.346389413       1.22529615E-04  0.295250565       1.07474625E-06
   0.00000000      0.279310346      0.958412945      0.942267358      0.346301705       3.51288356E-04  0.295175374       9.22009349E-07
   0.00000000      0.268965513      0.958480775      0.942360938      0.345954150       5.43699891E-04  0.294875115       1.17346644E-06
   0.00000000      0.258620679      0.958596468      0.942519963      0.345387578       7.10759021E-04  0.294385403       8.97794962E-07
   0.00000000      0.248275861      0.958752394      0.942734778      0.344631910       8.54421291E-04  0.293731987       1.14552677E-06
   0.00000000      0.237931028      0.958941877      0.942995667      0.343715668       9.74454277E-04  0.292939782       1.12317502E-06
   0.00000000      0.227586210      0.959157944      0.943293214      0.342667133       1.07045996E-03  0.292033225       1.19209290E-06
   0.00000000      0.217241377      0.959394157      0.943618357      0.341514915       1.14245585E-03  0.291037172       1.13248825E-06
   0.00000000      0.206896558      0.959643841      0.943962216      0.340287447       1.19092595E-03  0.289976150       1.14552677E-06
   0.00000000      0.196551725      0.959901273      0.944316626      0.339011818       1.21685688E-03  0.288873762       1.05425715E-06
   0.00000000      0.186206892      0.960160732      0.944673836      0.337713778       1.22153712E-03  0.287752181       8.36327672E-07
   0.00000000      0.175862074      0.960417449      0.945027411      0.336416811       1.20687974E-03  0.286631733       7.56233931E-07
   0.00000000      0.165517241      0.960667133      0.945371449      0.335141867       1.17489195E-03  0.285530537       8.51228833E-07
   0.00000000      0.155172408      0.960906565      0.945701182      0.333906949       1.12763757E-03  0.284464151       6.72414899E-07
   0.00000000      0.144827589      0.961132705      0.946012735      0.332727551       1.06717995E-03  0.283445895       6.72414899E-07
   0.00000000      0.134482756      0.961343467      0.946303010      0.331616402       9.95606417E-04  0.282486767       4.58210707E-07
   0.00000000      0.124137931      0.961537182      0.946569979      0.330584049       9.14755161E-04  0.281595826       4.56348062E-07
   0.00000000      0.113793105      0.961712420      0.946811497      0.329638720       8.26153613E-04  0.280780166       4.63798642E-07
   0.00000000      0.103448279      0.961868286      0.947026193      0.328787029       7.31190841E-04  0.280045480       2.88709998E-07
   0.00000000       9.31034461E-02  0.962004006      0.947213292      0.328034073       6.31032686E-04  0.279396057       3.46451998E-07
   0.00000000       8.27586204E-02  0.962119281      0.947372019      0.327383727       5.26634394E-04  0.278835356       1.88127160E-07
   0.00000000       7.24137947E-02  0.962213337      0.947501481      0.326839447       4.18768730E-04  0.278366208      -6.33299351E-08
   0.00000000       6.20689653E-02  0.962285757      0.947601259      0.326403558       3.08316783E-04  0.277990699      -1.52736902E-07
   0.00000000       5.17241396E-02  0.962336361      0.947671175      0.326078743       1.96119319E-04  0.277711064       8.00937414E-08
   0.00000000       4.13793102E-02  0.962364852      0.947710335      0.325867087       8.37995613E-05  0.277529120      -9.49949026E-08
   0.00000000       3.10344826E-02  0.962370813      0.947718561      0.325771391      -2.53247545E-05  0.277447283      -9.31322575E-08
   0.00000000       2.06896551E-02  0.962354183      0.947695792      0.325794458      -1.23653153E-04  0.277467877       1.11758709E-07
   0.00000000       1.03448275E-02  0.962315619      0.947642744      0.325939894      -1.94288412E-04  0.277594000       2.17929482E-07
   1.01942774E-02  -1.06002917E-05  0.962133229      0.947391272      0.326077312      -3.90126079E-04  0.277721703       1.95577741E-07
   2.03885511E-02  -4.05888240E-05  0.961653173      0.946729779      0.326203048      -8.85952206E-04  0.277857304       4.06056643E-07
   3.05827484E-02  -8.74972393E-05  0.961205065      0.946112931      0.326169640      -1.34954101E-03  0.277855963       1.20885670E-06
   4.07768898E-02  -1.49138228E-04  0.960774720      0.945520937      0.326028198      -1.76251656E-03  0.277761906       2.21841037E-06
   5.09709269E-02  -2.23550553E-04  0.960355103      0.944943964      0.325809956      -2.12403713E-03  0.277601928       3.34344804E-06
   6.11648858E-02  -3.08956922E-04  0.959940195      0.944374204      0.325535148      -2.43530772E-03  0.277393371       5.25079668E-06
   7.13587478E-02  -4.03728453E-04  0.959525108      0.943804502      0.325215697      -2.69769435E-03  0.277146637       7.32392073E-06
   8.15525427E-02  -5.06357115E-04  0.959105074      0.943227887      0.324857980      -2.91271252E-03  0.276867360       9.12509859E-06
   9.17462707E-02  -6.15430705E-04  0.958675861      0.942638636      0.324464321      -3.08217527E-03  0.276557714       1.08797103E-05
  0.101939946      -7.29613879E-04  0.958234072      0.942031980      0.324035734      -3.20858671E-03  0.276218772       1.24108046E-05
  0.112133577      -8.47629446E-04  0.957776845      0.941404164      0.323573679      -3.29450355E-03  0.275851786       1.39661133E-05
  0.122327171      -9.68243345E-04  0.957303226      0.940753877      0.323081017      -3.34283430E-03  0.275459290       1.53556466E-05
  0.132520750      -1.09024998E-03  0.956813157      0.940081358      0.322562307      -3.35564464E-03  0.275045127       1.71698630E-05
  0.142714337      -1.21245917E-03  0.956308186      0.939388096      0.322022676      -3.33462120E-03  0.274613649       1.84476376E-05
  0.152907923      -1.33368257E-03  0.955790758      0.938678324      0.321467340      -3.28047341E-03  0.274169087       2.02916563E-05
  0.163101539      -1.45272142E-03  0.955264390      0.937956274      0.320900917      -3.19314282E-03  0.273715228       2.20108777E-05
  0.173295200      -1.56835280E-03  0.954733908      0.937228918      0.320326418      -3.07195610E-03  0.273254335       2.39573419E-05
  0.183488905      -1.67931605E-03  0.954204261      0.936502993      0.319745362      -2.91540660E-03  0.272787452       2.59708613E-05
  0.193682685      -1.78429752E-03  0.953681290      0.935786307      0.319157779      -2.72163050E-03  0.272314310       2.78670341E-05
  0.203876525      -1.88191328E-03  0.953171253      0.935087621      0.318561643      -2.48795236E-03  0.271832913       2.98842788E-05
  0.214070454      -1.97069068E-03  0.952680409      0.934415877      0.317953259      -2.21113279E-03  0.271339655       3.24435532E-05
  0.224264458      -2.04904471E-03  0.952215731      0.933780432      0.317327589      -1.88707467E-03  0.270830005       3.51723284E-05
  0.234458551      -2.11525219E-03  0.951784551      0.933191061      0.316677123      -1.51088217E-03  0.270297259       3.78582627E-05
  0.244652733      -2.16741930E-03  0.951393783      0.932657838      0.315992773      -1.07660075E-03  0.269733369       4.12687659E-05
  0.254846990      -2.20344099E-03  0.951051533      0.932191312      0.315263122      -5.76943217E-04  0.269128352       4.45861369E-05
  0.265041292      -2.22095218E-03  0.950765431      0.931801856      0.314474165      -3.00428587E-06  0.268470049       4.80115414E-05
  0.275235593      -2.21726228E-03  0.950543344      0.931500852      0.313609332       6.56050513E-04  0.267744303       5.19063324E-05
  0.285429865      -2.18927371E-03  0.950393677      0.931299448      0.312649429       1.41338562E-03  0.266934752       5.61419874E-05
  0.295624018      -2.13337177E-03  0.950324833      0.931209207      0.311571896       2.28578784E-03  0.266022503       6.06663525E-05
  0.305817962      -2.04527588E-03  0.950345695      0.931242406      0.310350478       3.29412566E-03  0.264985591       6.55688345E-05
  0.316011488      -1.91983546E-03  0.950465500      0.931411505      0.308954179       4.46596835E-03  0.263798803       7.06892461E-05
  0.326204360      -1.75073801E-03  0.950693846      0.931730032      0.307345897       5.83734456E-03  0.262432128       7.62883574E-05
  0.336396307      -1.53008103E-03  0.951040983      0.932212472      0.305480540       7.45745376E-03  0.260850132       8.28374177E-05
  0.346586645      -1.24772848E-03  0.951518774      0.932874978      0.303301394       9.39563010E-03  0.259009480       9.01296735E-05
  0.356774658      -8.90274358E-04  0.952140629      0.933736145      0.300736099       1.17530487E-02  0.256857008       9.81371850E-05
  0.366958946      -4.39326104E-04  0.952922285      0.934818506      0.297690719       1.47035606E-02  0.254328758       1.07849017E-04
  0.377137065       1.33766516E-04  0.953897774      0.936170518      0.294084191       1.90308169E-02  0.251413465       1.20645389E-04
  0.387299746       9.32033930E-04  0.954959691      0.937645197      0.290520757       2.55899653E-02  0.248750880       1.36934221E-04
  0.397434235       2.03104783E-03  0.955883563      0.938934743      0.287676245       3.39866839E-02  0.247021437       1.57508999E-04
  0.407523632       3.48527054E-03  0.956579149      0.939917505      0.285833657       4.41134162E-02  0.246590540       1.85241923E-04
  0.417543113       5.36030158E-03  0.956945419      0.940461576      0.285401911       5.64085059E-02  0.248020217       2.27969140E-04
  0.427456856       7.73026003E-03  0.956751287      0.940263212      0.287280202       7.14776665E-02  0.252382606       3.01139429E-04
  0.437217921       1.06651187E-02  0.955556571      0.938744009      0.293170601       8.98708701E-02  0.261465281       4.33387235E-04
  0.446780443       1.41935814E-02  0.952574193      0.934868574      0.306063443      0.111283243      0.277832747       6.72893599E-04
  0.456144422       1.82216074E-02  0.946615219      0.927051365      0.330316842      0.132347956      0.303900152       1.06127001E-03
  0.465438336       2.24102195E-02  0.936707318      0.913968146      0.368875355      0.143471345      0.338642806       1.57858431E-03
  0.474928796       2.61229333E-02  0.924232304      0.897456110      0.415364712      0.131132454      0.373577416       2.11753696E-03
  0.484786808       2.86871437E-02  0.913763583      0.883682668      0.452802151       9.19136927E-02  0.397082925       2.59947404E-03
  0.494905144       2.98680626E-02  0.908900917      0.877548337      0.469359219       4.07066718E-02  0.405220449       3.10361385E-03
  0.505094886       2.98680626E-02  0.908636391      0.877728403      0.467781335      -9.21685342E-03  0.402326047       3.71633843E-03
  0.515213192       2.86871418E-02  0.910214245      0.880712569      0.452089459      -5.97950108E-02  0.391814888       4.68138978E-03
  0.525071204       2.61229314E-02  0.913686275      0.886633754      0.421600282     -0.107790694      0.373347253       6.05189428E-03
  0.534561634       2.24102195E-02  0.920665324      0.897317171      0.381435275     -0.137062043      0.346980244       7.37624988E-03
  0.543855608       1.82216056E-02  0.930517495      0.911612451      0.342290610     -0.138819218      0.315394312       8.27980600E-03
  0.553219557       1.41935805E-02  0.940009892      0.925144315      0.311808705     -0.121483855      0.285084426       8.80525261E-03
  0.562782109       1.06651178E-02  0.946755707      0.934718251      0.291869462      -9.89087000E-02  0.262125611       9.08969715E-03
  0.572543144       7.73025956E-03  0.950736105      0.940345347      0.280564815      -7.85664022E-02  0.247598916       9.21816938E-03
  0.582456887       5.36030112E-03  0.952860117      0.943298399      0.275051415      -6.20343499E-02  0.239504546       9.22944490E-03
  0.592476368       3.48527008E-03  0.953893006      0.944652796      0.273080885      -4.87801880E-02  0.235592529       9.14746150E-03