 title = "grid"
                                   variables = "x","y","rho","P","u","v","M","S"
 zone n=        3000  e =        5742  et=quadrilateral, f=fepoint
   0.00000000       0.00000000      0.961065173      0.945919156      0.331970632      -2.76458712E-04  0.282803774       1.41561031E-07
   1.00000000       0.00000000      0.945479810      0.932648718      0.334293813       6.28552167E-04  0.284467191       8.76121223E-03
   1.00000000      0.300000012      0.950495958      0.931825697      0.357811153      -2.04188997E-04  0.305420160       4.70414758E-04
   0.00000000      0.300000012      0.968539894      0.956237555      0.302185804      -3.71918693E-04  0.257031411       2.95974314E-06
   1.00000000       1.03448275E-02  0.946764469      0.932699978      0.339824617       8.22718663E-04  0.289362431       6.91519864E-03
   1.00000000       2.06896551E-02  0.948231459      0.932754457      0.346610785       9.51476221E-04  0.295361042       4.80603240E-03
   1.00000000       3.10344826E-02  0.949187100      0.932788193      0.351727039       9.69493121E-04  0.299866408       3.43200006E-03
   1.00000000       4.13793102E-02  0.949824154      0.932807565      0.355737090       9.18606238E-04  0.303383619       2.51346454E-03
   1.00000000       5.17241396E-02  0.950253427      0.932816565      0.358859211       8.22001486E-04  0.306113720       1.89046934E-03
   1.00000000       6.20689653E-02  0.950541198      0.932816625      0.361222327       6.93776528E-04  0.308175892       1.46662071E-03
   1.00000000       7.24137947E-02  0.950730145      0.932807982      0.362930149       5.42984577E-04  0.309664935       1.17914937E-03
   1.00000000       8.27586204E-02  0.950849712      0.932790399      0.364077568       3.76546319E-04  0.310666233       9.84171405E-04
   1.00000000       9.31034461E-02  0.950919092      0.932763875      0.364754677       2.00553899E-04  0.311259657       8.53652135E-04
   1.00000000      0.103448279      0.950952232      0.932727873      0.365045875       2.06880777E-05  0.311519563       7.66238198E-04
   1.00000000      0.113793105      0.950958788      0.932682753      0.365030617      -1.57788119E-04  0.311515152       7.08170235E-04
   1.00000000      0.124137931      0.950946331      0.932628870      0.364780605      -3.29524541E-04  0.311308861       6.68739900E-04
   1.00000000      0.134482756      0.950919926      0.932567418      0.364359319      -4.89618047E-04  0.310955405       6.41750172E-04
   1.00000000      0.144827589      0.950883090      0.932499468      0.363821179      -6.33518095E-04  0.310501665       6.23159111E-04
   1.00000000      0.155172408      0.950839460      0.932426572      0.363211691      -7.57420377E-04  0.309986651       6.09157607E-04
   1.00000000      0.165517241      0.950791657      0.932350397      0.362568080      -8.58257059E-04  0.309442431       5.97843900E-04
   1.00000000      0.175862074      0.950742185      0.932272851      0.361920506      -9.33921430E-04  0.308894724       5.87543473E-04
   1.00000000      0.186206892      0.950692475      0.932195485      0.361292541      -9.83234961E-04  0.308363616       5.77766448E-04
   1.00000000      0.196551725      0.950644255      0.932120085      0.360701710      -1.00589800E-03  0.307864040       5.67907467E-04
   1.00000000      0.206896558      0.950599253      0.932048261      0.360160202      -1.00255944E-03  0.307406396       5.57113439E-04
   1.00000000      0.217241377      0.950558245      0.931981325      0.359676242      -9.74657945E-04  0.306997687       5.45671210E-04
   1.00000000      0.227586210      0.950521946      0.931920171      0.359254599      -9.24332882E-04  0.306641877       5.33532351E-04
   1.00000000      0.237931028      0.950491011      0.931865990      0.358896643      -8.54234502E-04  0.306340098       5.20953909E-04
   1.00000000      0.248275861      0.950465679      0.931819081      0.358600974      -7.67227146E-04  0.306091219       5.07898629E-04
   1.00000000      0.258620679      0.950445354      0.931780159      0.358363628      -6.66034815E-04  0.305891573       4.96091321E-04
   1.00000000      0.268965513      0.950429976      0.931749105      0.358178288      -5.52989077E-04  0.305735797       4.85416502E-04
   1.00000000      0.279310346      0.950418293      0.931725264      0.358036160      -4.28792002E-04  0.305616379       4.77014109E-04
   1.00000000      0.289655179      0.950408757      0.931706369      0.357927352      -2.89373857E-04  0.305524975       4.70826402E-04
  0.989898980      0.300000012      0.950071633      0.931239843      0.358097821      -2.34560837E-04  0.305692792       4.66601923E-04
  0.979797959      0.300000012      0.949047863      0.929828763      0.358732432      -2.14833723E-04  0.306301594       4.59644943E-04
  0.969696999      0.300000012      0.947972596      0.928348005      0.359415412      -2.00588911E-04  0.306955367       4.52941284E-04
  0.959595978      0.300000012      0.946842432      0.926792920      0.360152453      -1.90349514E-04  0.307659239       4.46470454E-04
  0.949494958      0.300000012      0.945656955      0.925163329      0.360944659      -1.83275508E-04  0.308414102       4.40599397E-04
  0.939393938      0.300000012      0.944419384      0.923463404      0.361789584      -1.79043273E-04  0.309217960       4.34838235E-04
  0.929292917      0.300000012      0.943136156      0.921702147      0.362680882      -1.77129463E-04  0.310064882       4.29332256E-04
  0.919191897      0.300000012      0.941817701      0.919893563      0.363608629      -1.77085560E-04  0.310945898       4.23662364E-04
  0.909090936      0.300000012      0.940477312      0.918056309      0.364558905      -1.78435890E-04  0.311848223       4.18324023E-04
  0.898989916      0.300000012      0.939132035      0.916213572      0.365514368      -1.80817646E-04  0.312755883       4.13101166E-04
  0.888888896      0.300000012      0.937801361      0.914391637      0.366454899      -1.83847224E-04  0.313650399       4.07632440E-04
  0.878787875      0.300000012      0.936506271      0.912619054      0.367358953      -1.87305326E-04  0.314512044       4.01947647E-04
  0.868686855      0.300000012      0.935268342      0.910924971      0.368204266      -1.90999534E-04  0.315320134       3.95774841E-04
  0.858585835      0.300000012      0.934108078      0.909337938      0.368969679      -1.95059416E-04  0.316054970       3.89859080E-04
  0.848484874      0.300000012      0.933044910      0.907883584      0.369636178      -1.99529328E-04  0.316698998       3.83637846E-04
  0.838383853      0.300000012      0.932095349      0.906584203      0.370188594      -2.04606346E-04  0.317238003       3.76857817E-04
  0.828282833      0.300000012      0.931272209      0.905457556      0.370615870      -2.10752973E-04  0.317661315       3.70211899E-04
  0.818181813      0.300000012      0.930584967      0.904516160      0.370911717      -2.18253481E-04  0.317962885       3.63551080E-04
  0.808080792      0.300000012      0.930039167      0.903767347      0.371074796      -2.27345838E-04  0.318141133       3.56711447E-04
  0.797979772      0.300000012      0.929636717      0.903213561      0.371108264      -2.38278197E-04  0.318198502       3.49741429E-04
  0.787878811      0.300000012      0.929375887      0.902852356      0.371019602      -2.51377380E-04  0.318141490       3.42588872E-04
  0.777777791      0.300000012      0.929252625      0.902678311      0.370819420      -2.66496267E-04  0.317979395       3.35440040E-04
  0.767676771      0.300000012      0.929259837      0.902681947      0.370520651      -2.83612841E-04  0.317723811       3.28674912E-04
  0.757575750      0.300000012      0.929389298      0.902851701      0.370137691      -3.02465225E-04  0.317387700       3.21660191E-04
  0.747474730      0.300000012      0.929631054      0.903173983      0.369685978      -3.22732812E-04  0.316985041       3.14448029E-04
  0.737373710      0.300000012      0.929973602      0.903633356      0.369180471      -3.43873893E-04  0.316529423       3.07127833E-04
  0.727272749      0.300000012      0.930405617      0.904214203      0.368635893      -3.65413289E-04  0.316034377       2.99461186E-04
  0.717171729      0.300000012      0.930914581      0.904899895      0.368066221      -3.86875006E-04  0.315512687       2.91928649E-04
  0.707070708      0.300000012      0.931487799      0.905673325      0.367484093      -4.07799409E-04  0.314976126       2.84429640E-04
  0.696969688      0.300000012      0.932112873      0.906517446      0.366900682      -4.27757419E-04  0.314435035       2.76926905E-04
  0.686868668      0.300000012      0.932777226      0.907415032      0.366326511      -4.46422840E-04  0.313899517       2.69096345E-04
  0.676767647      0.300000012      0.933468759      0.908349931      0.365770519      -4.63630684E-04  0.313377887       2.61325389E-04
  0.666666687      0.300000012      0.934175789      0.909305692      0.365240932      -4.79242532E-04  0.312878072       2.52999365E-04
  0.656565666      0.300000012      0.934886754      0.910267115      0.364744961      -4.93419706E-04  0.312406987       2.44650990E-04
  0.646464646      0.300000012      0.935591042      0.911219537      0.364289016      -5.06137847E-04  0.311970830       2.36120075E-04
  0.636363626      0.300000012      0.936278641      0.912149727      0.363878429      -5.17388922E-04  0.311574757       2.27887183E-04
  0.626262605      0.300000012      0.936940908      0.913045943      0.363517374      -5.27354248E-04  0.311222792       2.20026821E-04
  0.616161644      0.300000012      0.937570035      0.913897455      0.363208950      -5.35939704E-04  0.310918182       2.12412328E-04
  0.606060624      0.300000012      0.938159883      0.914695859      0.362954289      -5.42652444E-04  0.310662270       2.05162913E-04
  0.595959604      0.300000012      0.938705385      0.915434301      0.362752050      -5.47112839E-04  0.310454100       1.98323280E-04
  0.585858583      0.300000012      0.939203262      0.916108429      0.362598717      -5.48983517E-04  0.310290933       1.92113221E-04
  0.575757563      0.300000012      0.939652145      0.916715682      0.362487853      -5.47669071E-04  0.310167402       1.85824931E-04
  0.565656543      0.300000012      0.940051615      0.917255998      0.362409711      -5.42680908E-04  0.310075104       1.80032104E-04
  0.555555582      0.300000012      0.940403938      0.917732179      0.362351328      -5.33448241E-04  0.310002744       1.74414366E-04
  0.545454562      0.300000012      0.940712929      0.918149233      0.362296134      -5.19589754E-04  0.309935987       1.68815255E-04
  0.535353541      0.300000012      0.940984547      0.918515444      0.362224460      -5.01490140E-04  0.309857637       1.63443387E-04
  0.525252521      0.300000012      0.941226661      0.918841422      0.362115324      -4.80725401E-04  0.309749126       1.58112496E-04
  0.515151501      0.300000012      0.941448271      0.919139445      0.361948878      -4.60085925E-04  0.309592932       1.52762979E-04
  0.505050480      0.300000012      0.941659749      0.919423044      0.361708760      -4.42250428E-04  0.309374601       1.46884471E-04
  0.494949490      0.300000012      0.941872060      0.919708073      0.361382037      -4.28135332E-04  0.309082031       1.41177326E-04
  0.484848499      0.300000012      0.942098320      0.920012593      0.360955775      -4.17099858E-04  0.308703482       1.35999173E-04
  0.474747479      0.300000012      0.942351997      0.920354426      0.360418260      -4.09921282E-04  0.308228016       1.30522996E-04
  0.464646459      0.300000012      0.942645311      0.920750737      0.359761894      -4.07879590E-04  0.307648301       1.25348568E-04
  0.454545468      0.300000012      0.942990243      0.921217740      0.358982354      -4.10512788E-04  0.306960016       1.20192766E-04
  0.444444448      0.300000012      0.943397522      0.921770394      0.358076394      -4.16519411E-04  0.306159675       1.15435570E-04
  0.434343427      0.300000012      0.943876266      0.922421277      0.357041597      -4.24951490E-04  0.305244595       1.11047179E-04
  0.424242437      0.300000012      0.944433689      0.923179865      0.355877519      -4.35671653E-04  0.304214180       1.06494874E-04
  0.414141417      0.300000012      0.945074141      0.924053013      0.354586720      -4.48890583E-04  0.303070247       1.02806836E-04
  0.404040396      0.300000012      0.945800126      0.925043881      0.353174597      -4.64880577E-04  0.301817447       9.94913280E-05
  0.393939406      0.300000012      0.946612179      0.926153243      0.351649255      -4.83607175E-04  0.300462812       9.65036452E-05
  0.383838385      0.300000012      0.947508812      0.927378714      0.350020349      -5.04901458E-04  0.299014896       9.33781266E-05
  0.373737365      0.300000012      0.948486865      0.928716600      0.348298967      -5.28432894E-04  0.297483385       9.06568021E-05
  0.363636374      0.300000012      0.949542046      0.930161059      0.346496880      -5.53622085E-04  0.295878828       8.81012529E-05
  0.353535354      0.300000012      0.950668812      0.931704283      0.344625920      -5.80160820E-04  0.294211805       8.55568796E-05
  0.343434334      0.300000012      0.951860905      0.933337986      0.342698187      -6.07670809E-04  0.292493194       8.30553472E-05
  0.333333343      0.300000012      0.953111351      0.935052931      0.340724915      -6.35524106E-04  0.290733039       8.07922333E-05
  0.323232323      0.300000012      0.954412997      0.936839163      0.338716745      -6.63165469E-04  0.288940966       7.86334276E-05
  0.313131303      0.300000012      0.955758572      0.938686609      0.336683303      -6.90039364E-04  0.287125856       7.63237476E-05
  0.303030312      0.300000012      0.957140625      0.940585256      0.334632814      -7.15529080E-04  0.285295099       7.39842653E-05
  0.292929292      0.300000012      0.958551586      0.942524672      0.332572371      -7.39251031E-04  0.283455312       7.14603812E-05
  0.282828271      0.300000012      0.959984124      0.944495142      0.330508173      -7.60949217E-04  0.281612217       6.92121685E-05
  0.272727281      0.300000012      0.961431026      0.946486533      0.328445464      -7.80364091E-04  0.279770762       6.69136643E-05
  0.262626261      0.300000012      0.962885082      0.948488832      0.326389074      -7.97443441E-04  0.277935475       6.44121319E-05
  0.252525240      0.300000012      0.964338601      0.950491726      0.324343860      -8.12237908E-04  0.276110947       6.20931387E-05
  0.242424250      0.300000012      0.965783894      0.952484727      0.322314560      -8.24778865E-04  0.274301559       6.00367785E-05
  0.232323229      0.300000012      0.967213213      0.954456627      0.320306659      -8.35276151E-04  0.272512525       5.77606261E-05
  0.222222224      0.300000012      0.968617737      0.956395686      0.318326205      -8.43989546E-04  0.270749271       5.58178872E-05
  0.212121218      0.300000012      0.969988406      0.958288908      0.316380233      -8.51117307E-04  0.269018352       5.36609441E-05
  0.202020198      0.300000012      0.971315563      0.960122526      0.314476967      -8.56856466E-04  0.267327309       5.10253012E-05
  0.191919193      0.300000012      0.972588003      0.961881399      0.312625617      -8.61395150E-04  0.265684277       4.84557822E-05
  0.181818187      0.300000012      0.973794401      0.963549197      0.310836375      -8.64585454E-04  0.264098644       4.53526154E-05
  0.171717167      0.300000012      0.974921465      0.965108037      0.309120625      -8.66418297E-04  0.262580544       4.24915925E-05
  0.161616161      0.300000012      0.975955307      0.966538012      0.307489604      -8.66415212E-04  0.261140168       3.91891226E-05
  0.151515156      0.300000012      0.976880729      0.967818201      0.305955082      -8.64018046E-04  0.259788096       3.60067934E-05
  0.141414136      0.300000012      0.977681339      0.968926251      0.304528773      -8.58612941E-04  0.258535028       3.33208591E-05
  0.131313130      0.300000012      0.978340209      0.969838262      0.303221881      -8.49347678E-04  0.257391095       3.09636816E-05
  0.121212125      0.300000012      0.978839695      0.970529854      0.302045554      -8.35803337E-04  0.256366581       2.92230397E-05
  0.111111112      0.300000012      0.979162395      0.970975995      0.301011205      -8.17655877E-04  0.255472034       2.73333862E-05
  0.101010099      0.300000012      0.979290664      0.971152604      0.300131142      -7.94954889E-04  0.254718602       2.58591026E-05
   9.09090936E-02  0.300000012      0.979208171      0.971036673      0.299418479      -7.68192811E-04  0.254118145       2.43848190E-05
   8.08080807E-02  0.300000012      0.978900135      0.970607817      0.298887551      -7.37968949E-04  0.253683597       2.30977312E-05
   7.07070678E-02  0.300000012      0.978354752      0.969849825      0.298553646      -7.05000188E-04  0.253428519       2.20686197E-05
   6.06060624E-02  0.300000012      0.977563798      0.968751192      0.298431784      -6.70018955E-04  0.253366143       2.09724531E-05
   5.05050495E-02  0.300000012      0.976523578      0.967307329      0.298535943      -6.33758726E-04  0.253508627       1.99424103E-05
   4.04040404E-02  0.300000012      0.975236177      0.965520799      0.298877954      -5.96794125E-04  0.253866166       1.82036310E-05
   3.03030312E-02  0.300000012      0.973709643      0.963403165      0.299465805      -5.59066655E-04  0.254445463       1.56546012E-05
   2.02020202E-02  0.300000012      0.971960068      0.960976899      0.300298184      -5.17843757E-04  0.255244911       1.18631870E-05
   1.01010101E-02  0.300000012      0.970018864      0.958286345      0.301345080      -4.58901981E-04  0.256237715       7.00540841E-06
   0.00000000      0.289655179      0.968397915      0.956040978      0.302454740      -4.39790339E-04  0.257267833       2.61887908E-06
   0.00000000      0.279310346      0.968308389      0.955917180      0.302891731      -5.70123957E-04  0.257644504       2.51829624E-06
   0.00000000      0.268965513      0.968175232      0.955733240      0.303515792      -7.02532590E-04  0.258182675       2.57417560E-06
   0.00000000      0.258620679      0.967998922      0.955489457      0.304326534      -8.26525444E-04  0.258882016       2.49594450E-06
   0.00000000      0.248275861      0.967780888      0.955188215      0.305313736      -9.37366567E-04  0.259733766       2.48849392E-06
   0.00000000      0.237931028      0.967523754      0.954832613      0.306461871      -1.03206956E-03  0.260724634       2.19792128E-06
   0.00000000      0.227586210      0.967230737      0.954427660      0.307751209      -1.10820937E-03  0.261837631       2.07871199E-06
   0.00000000      0.217241377      0.966906130      0.953979254      0.309158504      -1.16431119E-03  0.263052821       2.04518437E-06
   0.00000000      0.206896558      0.966555059      0.953494012      0.310657769      -1.19981903E-03  0.264347851       1.71363354E-06
   0.00000000      0.196551725      0.966182888      0.952979863      0.312221795      -1.21498969E-03  0.265699208       1.48825347E-06
   0.00000000      0.186206892      0.965795517      0.952445090      0.313822925      -1.21077418E-03  0.267083198       1.54599547E-06
   0.00000000      0.175862074      0.965399742      0.951898396      0.315433592      -1.18878577E-03  0.268475890       1.28522515E-06
   0.00000000      0.165517241      0.965001762      0.951348841      0.317028195      -1.15152984E-03  0.269855261       1.05425715E-06
   0.00000000      0.155172408      0.964607537      0.950804472      0.318584174      -1.10170839E-03  0.271201760       6.83590770E-07
   0.00000000      0.144827589      0.964222610      0.950273275      0.320081770      -1.04225602E-03  0.272498190       6.18398190E-07
   0.00000000      0.134482756      0.963851988      0.949761927      0.321505278      -9.76388052E-04  0.273730934       5.84870577E-07
   0.00000000      0.124137931      0.963499546      0.949275434      0.322843343      -9.06763540E-04  0.274890155       3.22237611E-07
   0.00000000      0.113793105      0.963168323      0.948818624      0.324088514      -8.36045831E-04  0.275969148       3.25962901E-07
   0.00000000      0.103448279      0.962860405      0.948393881      0.325236976      -7.66800134E-04  0.276964694       1.75088644E-07
   0.00000000       9.31034461E-02  0.962576687      0.948002756      0.326288313      -7.00723031E-04  0.277876228       2.96160579E-07
   0.00000000       8.27586204E-02  0.962317705      0.947645485      0.327244699      -6.39168720E-04  0.278705627       7.63684511E-08
   0.00000000       7.24137947E-02  0.962083042      0.947321951      0.328110844      -5.83264278E-04  0.279456794       5.96046448E-08
   0.00000000       6.20689653E-02  0.961871445      0.947030365      0.328892529      -5.33581187E-04  0.280134827       1.39698386E-07
   0.00000000       5.17241396E-02  0.961681843      0.946768880      0.329597414      -4.90295060E-04  0.280746251      -9.31322575E-09
   0.00000000       4.13793102E-02  0.961512566      0.946535647      0.330233961      -4.52684035E-04  0.281298339       4.65661287E-08
   0.00000000       3.10344826E-02  0.961361408      0.946327329      0.330811501      -4.18374198E-04  0.281799108       1.11758709E-08
   0.00000000       2.06896551E-02  0.961226642      0.946141660      0.331340462      -3.82163911E-04  0.282257557       8.19563866E-08
   0.00000000       1.03448275E-02  0.961106241      0.945975840      0.331833005      -3.31480114E-04  0.282684147       1.63912773E-07
   1.01942774E-02  -1.06002917E-05  0.961046875      0.945894063      0.332006752      -5.12564380E-04  0.282835841       2.42143869E-07
   2.03885511E-02  -4.05888240E-05  0.961029053      0.945869565      0.331946433      -1.09451055E-03  0.282786727       2.55182385E-07
   3.05827484E-02  -8.74972393E-05  0.961102307      0.945970654      0.331719100      -1.64158503E-03  0.282590628       4.93600965E-07
   4.07768898E-02  -1.49138228E-04  0.961250782      0.946175516      0.331375390      -2.13740440E-03  0.282291442       6.91041350E-07
   5.09709269E-02  -2.23550553E-04  0.961468041      0.946475089      0.330945730      -2.58269580E-03  0.281915426       8.86619091E-07
   6.11648858E-02  -3.08956922E-04  0.961750686      0.946864843      0.330450267      -2.98043271E-03  0.281479657       1.14925206E-06
   7.13587478E-02  -4.03728453E-04  0.962096691      0.947342455      0.329903543      -3.33370804E-03  0.280996561       1.82352960E-06
   8.15525427E-02  -5.06357115E-04  0.962505519      0.947907269      0.329316288      -3.64532694E-03  0.280475229       3.05287540E-06
   9.17462707E-02  -6.15430705E-04  0.962976873      0.948558569      0.328696281      -3.91681073E-03  0.279922277       4.50946391E-06
  0.101939946      -7.29613879E-04  0.963510454      0.949296057      0.328047961      -4.14935779E-03  0.279341489       6.11320138E-06
  0.112133577      -8.47629446E-04  0.964105785      0.950119078      0.327372491      -4.34283912E-03  0.278733820       8.03917646E-06
  0.122327171      -9.68243345E-04  0.964761555      0.951025784      0.326668233      -4.49695904E-03  0.278098017       9.93534923E-06
  0.132520750      -1.09024998E-03  0.965476334      0.952014029      0.325930625      -4.61079692E-03  0.277430207       1.16843730E-05
  0.142714337      -1.21245917E-03  0.966247499      0.953080237      0.325154036      -4.68350807E-03  0.276725799       1.31651759E-05
  0.152907923      -1.33368257E-03  0.967071533      0.954220116      0.324333042      -4.71442612E-03  0.275980294       1.50725245E-05
  0.163101539      -1.45272142E-03  0.967944622      0.955428362      0.323463231      -4.70271334E-03  0.275190234       1.70823187E-05
  0.173295200      -1.56835280E-03  0.968862474      0.956698954      0.322542191      -4.64741560E-03  0.274353802       1.91722065E-05
  0.183488905      -1.67931605E-03  0.969819844      0.958024323      0.321569175      -4.54720296E-03  0.273470879       2.08541751E-05
  0.193682685      -1.78429752E-03  0.970811069      0.959397256      0.320545018      -4.40020300E-03  0.272542417       2.26721168E-05
  0.203876525      -1.88191328E-03  0.971830130      0.960809350      0.319471151      -4.20374749E-03  0.271570027       2.46353447E-05
  0.214070454      -1.97069068E-03  0.972870767      0.962252200      0.318349093      -3.95469368E-03  0.270555407       2.69208103E-05
  0.224264458      -2.04904471E-03  0.973926544      0.963716924      0.317179590      -3.64883291E-03  0.269499719       2.94484198E-05
  0.234458551      -2.11525219E-03  0.974991620      0.965195298      0.315962255      -3.28138028E-03  0.268403053       3.21213156E-05
  0.244652733      -2.16741930E-03  0.976060569      0.966679394      0.314694792      -2.84654624E-03  0.267264009       3.45250592E-05
  0.254846990      -2.20344099E-03  0.977127552      0.968162179      0.313372791      -2.33733025E-03  0.266079187       3.76356766E-05
  0.265041292      -2.22095218E-03  0.978188455      0.969636977      0.311989069      -1.74539466E-03  0.264843225       4.05833125E-05
  0.275235593      -2.21726228E-03  0.979239464      0.971099198      0.310533434      -1.06058281E-03  0.263547897       4.40701842E-05
  0.285429865      -2.18927371E-03  0.980277836      0.972544789      0.308992684      -2.70518329E-04  0.262182772       4.78057191E-05
  0.295624018      -2.13337177E-03  0.981301785      0.973971188      0.307349592       6.40557264E-04  0.260734081       5.18132001E-05
  0.305817962      -2.04527588E-03  0.982310712      0.975377619      0.305582434       1.69251300E-03  0.259184510       5.60469925E-05
  0.316011488      -1.91983546E-03  0.983304501      0.976763785      0.303664505       2.91137490E-03  0.257513046       6.05992973E-05
  0.326204360      -1.75073801E-03  0.984284580      0.978131711      0.301562637       4.33146255E-03  0.255693704       6.53741881E-05
  0.336396307      -1.53008103E-03  0.985252917      0.979484499      0.299235940       5.99966012E-03  0.253695101       7.07572326E-05
  0.346586645      -1.24772848E-03  0.986212790      0.980826974      0.296632946       7.98223261E-03  0.251478970       7.71963969E-05
  0.356774658      -8.90274358E-04  0.987168789      0.982165158      0.293689042       1.03758927E-02  0.248999253       8.41510482E-05
  0.366958946      -4.39326104E-04  0.988127410      0.983508885      0.290322453       1.33476425E-02  0.246202484       9.24780034E-05
  0.377137065       1.33766516E-04  0.989110887      0.984891653      0.286470473       1.76590737E-02  0.243090332       1.04750507E-04
  0.387299746       9.32033930E-04  0.990005255      0.986155748      0.282741666       2.41373219E-02  0.240297124       1.22063328E-04
  0.397434235       2.03104783E-03  0.990586996      0.986990035      0.279811502       3.23953032E-02  0.238496915       1.45321246E-04
  0.407523632       3.48527054E-03  0.990763962      0.987268507      0.277972490       4.23368551E-02  0.238059163       1.77277718E-04
  0.417543113       5.36030158E-03  0.990433156      0.986854136      0.277638048       5.44040762E-02  0.239542678       2.25023832E-04
  0.427456856       7.73026003E-03  0.989358962      0.985433161      0.279701412       6.92092106E-02  0.244004592       3.03339213E-04
  0.437217921       1.06651187E-02  0.987095654      0.982414842      0.285844296       8.73220265E-02  0.253204823       4.42017801E-04
  0.446780443       1.41935814E-02  0.982849777      0.976744235      0.299016446      0.108490147      0.269673616       6.88175671E-04
  0.456144422       1.82216074E-02  0.975410163      0.966791749      0.323538780      0.129465982      0.295829743       1.08394958E-03
  0.465438336       2.24102195E-02  0.963755131      0.951156855      0.362405956      0.140854612      0.330778807       1.60894729E-03
  0.474928796       2.61229333E-02  0.949199677      0.931611657      0.409500718      0.129283875      0.366339594       2.15132907E-03
  0.484786808       2.86871437E-02  0.936343968      0.914421022      0.448127806       9.11450237E-02  0.391097069       2.61714309E-03
  0.494905144       2.98680626E-02  0.929020882      0.904842794      0.466313630       4.08404060E-02  0.400866270       3.07960808E-03
  0.505094886       2.98680626E-02  0.926532924      0.901954412      0.466273427      -8.59135669E-03  0.399473935       3.63667309E-03
  0.515213192       2.86871418E-02  0.926304042      0.902452886      0.451672822      -5.89918569E-02  0.390029401       4.53507155E-03
  0.525071204       2.61229314E-02  0.928467989      0.906576276      0.421719521     -0.106973089      0.372118980       5.82697242E-03
  0.534561634       2.24102195E-02  0.934649467      0.916166067      0.381586254     -0.136243492      0.345876187       7.05958530E-03
  0.543855608       1.82216056E-02  0.944108784      0.929925203      0.342143416     -0.137941167      0.314149141       7.86833465E-03
  0.553219557       1.41935805E-02  0.953434289      0.943244576      0.311224818     -0.120537974      0.283591300       8.32904596E-03
  0.562782109       1.06651178E-02  0.960098445      0.952764094      0.290860951      -9.79649425E-02  0.260387570       8.61927960E-03
  0.572543144       7.73025956E-03  0.964023411      0.958436430      0.279247552      -7.77174905E-02  0.245689958       8.84354301E-03
  0.582456887       5.36030112E-03  0.966112137      0.961521447      0.273591310      -6.13392964E-02  0.237532020       9.02706757E-03
  0.592476368       3.48527008E-03  0.967153549      0.963088453      0.271650702      -4.82505076E-02  0.233671799       9.14721005E-03