 title = "grid"
                                   variables = "x","y","rho","P","u","v","M","S"
 zone n=        3000  e =        5742  et=quadrilateral, f=fepoint
   0.00000000       0.00000000      0.964877188      0.951176584      0.317642540      -6.25427638E-04  0.270383984       6.91041350E-07
   1.00000000       0.00000000      0.944444656      0.931220829      0.324315667       5.59704669E-04  0.276036501       8.76266882E-03
   1.00000000      0.300000012      0.951258779      0.932846785      0.353711277       1.25640479E-04  0.301876366       4.42465767E-04
   0.00000000      0.300000012      0.967679620      0.955046475      0.299804747       1.15984978E-04  0.255051613       6.37024641E-07
   1.00000000       1.03448275E-02  0.945764840      0.931367934      0.329940826       1.12313195E-03  0.280999452       6.96499087E-03
   1.00000000       2.06896551E-02  0.947207153      0.931420922      0.337012291       1.70521729E-03  0.287234634       4.88849729E-03
   1.00000000       3.10344826E-02  0.948174238      0.931464911      0.342447609       2.15097936E-03  0.292011201       3.50701436E-03
   1.00000000       4.13793102E-02  0.948841035      0.931504846      0.346828789       2.50099320E-03  0.295846641       2.56571732E-03
   1.00000000       5.17241396E-02  0.949306548      0.931544542      0.350374222       2.78026890E-03  0.298939466       1.92165934E-03
   1.00000000       6.20689653E-02  0.949634254      0.931585848      0.353208423       3.00499750E-03  0.301404327       1.48275308E-03
   1.00000000       7.24137947E-02  0.949868023      0.931630254      0.355425954       3.18548619E-03  0.303327948       1.18584186E-03
   1.00000000       8.27586204E-02  0.950039089      0.931679070      0.357110143       3.32850125E-03  0.304785699       9.86117870E-04
   1.00000000       9.31034461E-02  0.950168431      0.931732714      0.358337551       3.43827065E-03  0.305846065       8.53147358E-04
   1.00000000      0.103448279      0.950270951      0.931791365      0.359178126       3.51727963E-03  0.306570977       7.64992088E-04
   1.00000000      0.113793105      0.950357616      0.931855321      0.359695941       3.56671098E-03  0.307016790       7.05966726E-04
   1.00000000      0.124137931      0.950434983      0.931924462      0.359948397       3.58712953E-03  0.307233572       6.66247681E-04
   1.00000000      0.134482756      0.950507581      0.931998491      0.359985381       3.57824890E-03  0.307264566       6.38728961E-04
   1.00000000      0.144827589      0.950577915      0.932076693      0.359849721       3.53973568E-03  0.307146937       6.19037077E-04
   1.00000000      0.155172408      0.950647652      0.932158411      0.359577566       3.47088091E-03  0.306911856       6.03968278E-04
   1.00000000      0.165517241      0.950717747      0.932242692      0.359199494       3.37122264E-03  0.306585878       5.91211021E-04
   1.00000000      0.175862074      0.950788200      0.932328284      0.358742565       3.24025447E-03  0.306192160       5.79247251E-04
   1.00000000      0.186206892      0.950858295      0.932413638      0.358230293       3.07785859E-03  0.305751026       5.67564741E-04
   1.00000000      0.196551725      0.950927496      0.932497263      0.357683182       2.88444385E-03  0.305280149       5.55349514E-04
   1.00000000      0.206896558      0.950994909      0.932577848      0.357119858       2.66110618E-03  0.304795533       5.42568043E-04
   1.00000000      0.217241377      0.951059163      0.932653487      0.356557161       2.40936293E-03  0.304311723       5.29099256E-04
   1.00000000      0.227586210      0.951119244      0.932722628      0.356010705       2.13194476E-03  0.303842187       5.14762476E-04
   1.00000000      0.237931028      0.951173782      0.932783663      0.355494589       1.83246867E-03  0.303399026       4.99907881E-04
   1.00000000      0.248275861      0.951221287      0.932835042      0.355020791       1.51579361E-03  0.302992612       4.85109165E-04
   1.00000000      0.258620679      0.951260030      0.932875693      0.354599416       1.18857250E-03  0.302631527       4.71591949E-04
   1.00000000      0.268965513      0.951288521      0.932903826      0.354238063       8.59658176E-04  0.302322298       4.59870324E-04
   1.00000000      0.279310346      0.951305091      0.932917833      0.353943169       5.41648420E-04  0.302070469       4.50462103E-04
   1.00000000      0.289655179      0.951306641      0.932913542      0.353725314       2.55045248E-04  0.301885158       4.43622470E-04
  0.989898980      0.300000012      0.951462269      0.933123708      0.353548944       1.80461357E-04  0.301725328       4.39886004E-04
  0.979797959      0.300000012      0.951911271      0.933735192      0.353217453       2.31321974E-04  0.301414818       4.34447080E-04
  0.969696999      0.300000012      0.952304542      0.934270322      0.352892637       2.76077160E-04  0.301113605       4.29073349E-04
  0.959595978      0.300000012      0.952638388      0.934723914      0.352590382       3.18020873E-04  0.300835460       4.23816964E-04
  0.949494958      0.300000012      0.952909231      0.935091317      0.352321118       3.58562073E-04  0.300589383       4.18763608E-04
  0.939393938      0.300000012      0.953113794      0.935367405      0.352093488       3.98055447E-04  0.300383091       4.13518399E-04
  0.929292917      0.300000012      0.953247488      0.935546339      0.351915836       4.36364731E-04  0.300223917       4.08429652E-04
  0.919191897      0.300000012      0.953305721      0.935621202      0.351796716       4.73344902E-04  0.300119519       4.02865931E-04
  0.909090936      0.300000012      0.953282595      0.935584128      0.351745188       5.08676982E-04  0.300077915       3.97205353E-04
  0.898989916      0.300000012      0.953172147      0.935426474      0.351770699       5.41811052E-04  0.300107628       3.90894711E-04
  0.888888896      0.300000012      0.952967465      0.935139894      0.351882726       5.72422636E-04  0.300216973       3.85144725E-04
  0.878787875      0.300000012      0.952663362      0.934716165      0.352090478       6.00180123E-04  0.300414383       3.78826633E-04
  0.868686855      0.300000012      0.952254534      0.934148252      0.352402359       6.24776760E-04  0.300707370       3.71949747E-04
  0.858585835      0.300000012      0.951737165      0.933431447      0.352824897       6.45987515E-04  0.301101744       3.65165994E-04
  0.848484874      0.300000012      0.951109946      0.932563841      0.353362381       6.63602550E-04  0.301601261       3.58207151E-04
  0.838383853      0.300000012      0.950373888      0.931546986      0.354016185       6.77615288E-04  0.302207202       3.51041555E-04
  0.828282833      0.300000012      0.949533165      0.930387139      0.354783952       6.88144646E-04  0.302917242       3.44280154E-04
  0.818181813      0.300000012      0.948596001      0.929094911      0.355659366       6.95394643E-04  0.303725809       3.36848199E-04
  0.808080792      0.300000012      0.947573483      0.927686155      0.356631398       6.99606317E-04  0.304622710       3.29317525E-04
  0.797979772      0.300000012      0.946479976      0.926180899      0.357685208       7.01105746E-04  0.305594534       3.21900472E-04
  0.787878811      0.300000012      0.945333183      0.924603045      0.358802199       7.00248638E-04  0.306624413       3.14222649E-04
  0.777777791      0.300000012      0.944152653      0.922979891      0.359960496       6.97400421E-04  0.307692319       3.06509435E-04
  0.767676771      0.300000012      0.942959309      0.921339929      0.361136466       6.92921516E-04  0.308776796       2.98775733E-04
  0.757575750      0.300000012      0.941774547      0.919712663      0.362305552       6.86946674E-04  0.309855491       2.91112810E-04
  0.747474730      0.300000012      0.940619230      0.918126166      0.363444000       6.79683581E-04  0.310906619       2.83163041E-04
  0.737373710      0.300000012      0.939512193      0.916606367      0.364529252       6.71276532E-04  0.311909705       2.75097787E-04
  0.727272749      0.300000012      0.938470125      0.915176153      0.365542144       6.61557773E-04  0.312847018       2.67237425E-04
  0.717171729      0.300000012      0.937507153      0.913854182      0.366466522       6.50659902E-04  0.313703835       2.59000808E-04
  0.707070708      0.300000012      0.936634243      0.912655473      0.367290556       6.38492929E-04  0.314469129       2.50600278E-04
  0.696969688      0.300000012      0.935859263      0.911590636      0.368005872       6.25024899E-04  0.315135062       2.42024660E-04
  0.686868668      0.300000012      0.935186803      0.910666108      0.368608475       6.10416871E-04  0.315697759       2.33639032E-04
  0.676767647      0.300000012      0.934619009      0.909884870      0.369097143       5.94771933E-04  0.316155940       2.25637108E-04
  0.666666687      0.300000012      0.934156239      0.909247220      0.369473457       5.78522275E-04  0.316510797       2.17936933E-04
  0.656565666      0.300000012      0.933796585      0.908750594      0.369740993       5.62038273E-04  0.316765517       2.10724771E-04
  0.646464646      0.300000012      0.933537066      0.908390641      0.369904190       5.46083436E-04  0.316924006       2.03695148E-04
  0.636363626      0.300000012      0.933373153      0.908160985      0.369967848       5.31311613E-04  0.316990823       1.96687877E-04
  0.626262605      0.300000012      0.933299363      0.908054888      0.369936198       5.18760411E-04  0.316969633       1.90507621E-04
  0.616161644      0.300000012      0.933309972      0.908063650      0.369812310       5.09564765E-04  0.316863745       1.84245408E-04
  0.606060624      0.300000012      0.933398306      0.908178627      0.369597644       5.04639873E-04  0.316674769       1.78370625E-04
  0.595959604      0.300000012      0.933557272      0.908390105      0.369291723       5.04929456E-04  0.316402763       1.72797590E-04
  0.585858583      0.300000012      0.933779001      0.908687174      0.368892848       5.10951679E-04  0.316046864       1.67295337E-04
  0.575757563      0.300000012      0.934055150      0.909058690      0.368398249       5.22968883E-04  0.315605283       1.62079930E-04
  0.565656543      0.300000012      0.934377134      0.909492433      0.367805123       5.40550158E-04  0.315076321       1.56629831E-04
  0.555555582      0.300000012      0.934734583      0.909974635      0.367112100       5.62495610E-04  0.314459473       1.51202083E-04
  0.545454562      0.300000012      0.935117066      0.910491049      0.366320640       5.86979382E-04  0.313756764       1.45744532E-04
  0.535353541      0.300000012      0.935513318      0.911026239      0.365436584       6.11832831E-04  0.312973917       1.40272081E-04
  0.525252521      0.300000012      0.935911953      0.911564887      0.364470810       6.35326840E-04  0.312121034       1.34922564E-04
  0.515151501      0.300000012      0.936302841      0.912092984      0.363437355       6.57562341E-04  0.311210930       1.29505992E-04
  0.505050480      0.300000012      0.936676443      0.912598193      0.362351298       6.80044934E-04  0.310257018       1.24715269E-04
  0.494949490      0.300000012      0.937023938      0.913067758      0.361226559       7.03353900E-04  0.309271812       1.19868666E-04
  0.484848499      0.300000012      0.937336147      0.913489580      0.360078305       7.26057508E-04  0.308268875       1.15286559E-04
  0.474747479      0.300000012      0.937604904      0.913852334      0.358922571       7.48011516E-04  0.307262540       1.11021101E-04
  0.464646459      0.300000012      0.937824011      0.914148152      0.357772261       7.70615414E-04  0.306264043       1.07493252E-04
  0.454545468      0.300000012      0.937989891      0.914371312      0.356634021       7.94197782E-04  0.305279464       1.04021281E-04
  0.444444448      0.300000012      0.938099563      0.914518118      0.355511606       8.16133921E-04  0.304312140       1.00839883E-04
  0.434343427      0.300000012      0.938150585      0.914585233      0.354409754       8.33022932E-04  0.303366065       9.81092453E-05
  0.424242437      0.300000012      0.938143551      0.914573133      0.353334457       8.42701062E-04  0.302446544       9.53525305E-05
  0.414141417      0.300000012      0.938080609      0.914485216      0.352290839       8.44432507E-04  0.301557630       9.31471586E-05
  0.404040396      0.300000012      0.937967598      0.914328516      0.351282001       8.38292937E-04  0.300701678       9.04724002E-05
  0.393939406      0.300000012      0.937811911      0.914113939      0.350308210       8.25071707E-04  0.299878418       8.81329179E-05
  0.383838385      0.300000012      0.937623680      0.913855016      0.349366099       8.05656309E-04  0.299084216       8.58753920E-05
  0.373737365      0.300000012      0.937414348      0.913567483      0.348449558       7.81137089E-04  0.298313200       8.38339329E-05
  0.363636374      0.300000012      0.937197149      0.913269341      0.347550213       7.52327789E-04  0.297557294       8.18409026E-05
  0.353535354      0.300000012      0.936985672      0.912978947      0.346657753       7.20515498E-04  0.296806842       7.97361135E-05
  0.343434334      0.300000012      0.936793625      0.912715256      0.345760584       6.86842424E-04  0.296051055       7.78660178E-05
  0.333333343      0.300000012      0.936634362      0.912496328      0.344846010       6.52131159E-04  0.295278251       7.60070980E-05
  0.323232323      0.300000012      0.936520278      0.912338793      0.343901902       6.17074780E-04  0.294477284       7.38911331E-05
  0.313131303      0.300000012      0.936462104      0.912257731      0.342917413       5.82155713E-04  0.293638140       7.19949603E-05
  0.303030312      0.300000012      0.936469316      0.912265539      0.341882914       5.47807897E-04  0.292752147       6.97709620E-05
  0.292929292      0.300000012      0.936549187      0.912372649      0.340790600       5.14296815E-04  0.291812062       6.77853823E-05
  0.282828271      0.300000012      0.936707795      0.912587106      0.339635193       4.81749390E-04  0.290813118       6.56805933E-05
  0.272727281      0.300000012      0.936949253      0.912914693      0.338413566       4.50351276E-04  0.289752424       6.37844205E-05
  0.262626261      0.300000012      0.937276065      0.913358986      0.337124884       4.20167082E-04  0.288629144       6.21043146E-05
  0.252525240      0.300000012      0.937689841      0.913921952      0.335770696       3.91159265E-04  0.287444592       6.03385270E-05
  0.242424250      0.300000012      0.938190937      0.914603770      0.334354252       3.63429892E-04  0.286201715       5.81592321E-05
  0.232323229      0.300000012      0.938778698      0.915403903      0.332880795       3.36991536E-04  0.284905076       5.58607280E-05
  0.222222224      0.300000012      0.939451754      0.916320145      0.331356764       3.11906711E-04  0.283560425       5.28842211E-05
  0.212121218      0.300000012      0.940208197      0.917350411      0.329789072       2.88391282E-04  0.282173842       4.97438014E-05
  0.202020198      0.300000012      0.941045463      0.918491304      0.328185230       2.66694522E-04  0.280752063       4.64916229E-05
  0.191919193      0.300000012      0.941960990      0.919739783      0.326552421       2.47213320E-04  0.279301316       4.34629619E-05
  0.181818187      0.300000012      0.942951918      0.921092153      0.324897289       2.30338061E-04  0.277827621       4.07844782E-05
  0.171717167      0.300000012      0.944015443      0.922544718      0.323225409       2.16367160E-04  0.276335955       3.83965671E-05
  0.161616161      0.300000012      0.945148647      0.924093485      0.321541786       2.05623146E-04  0.274830908       3.62135470E-05
  0.151515156      0.300000012      0.946348369      0.925733864      0.319850802       1.98138077E-04  0.273316562       3.38051468E-05
  0.141414136      0.300000012      0.947610319      0.927460968      0.318157017       1.93734508E-04  0.271796972       3.21548432E-05
  0.131313130      0.300000012      0.948930919      0.929269612      0.316465288       1.91877218E-04  0.270276666       3.06498259E-05
  0.121212125      0.300000012      0.950305700      0.931153357      0.314782202       1.91824845E-04  0.268761635       2.88784504E-05
  0.111111112      0.300000012      0.951729000      0.933104634      0.313115686       1.92570908E-04  0.267259032       2.69897282E-05
  0.101010099      0.300000012      0.953194141      0.935115159      0.311476320       1.93182888E-04  0.265778124       2.57622451E-05
   9.09090936E-02  0.300000012      0.954694450      0.937174916      0.309876561       1.92509047E-04  0.264330119       2.41380185E-05
   8.08080807E-02  0.300000012      0.956221640      0.939272463      0.308331519       1.89527374E-04  0.262928367       2.20723450E-05
   7.07070678E-02  0.300000012      0.957766473      0.941394925      0.306857944       1.83604076E-04  0.261587709       1.92504376E-05
   6.06060624E-02  0.300000012      0.959318221      0.943527758      0.305473924       1.74549961E-04  0.260324001       1.59516931E-05
   5.05050495E-02  0.300000012      0.960865021      0.945654452      0.304196030       1.63204197E-04  0.259152025       1.17924064E-05
   4.04040404E-02  0.300000012      0.962393701      0.947757542      0.303036898       1.51768007E-04  0.258082926       7.77281821E-06
   3.03030312E-02  0.300000012      0.963890254      0.949818373      0.302002251       1.43611687E-04  0.257122278       4.50201333E-06
   2.02020202E-02  0.300000012      0.965340436      0.951817572      0.301089674       1.41790166E-04  0.256268531       2.33016908E-06
   1.01010101E-02  0.300000012      0.966726542      0.953730345      0.300297767       1.43000143E-04  0.255521327       1.12503767E-06
   0.00000000      0.289655179      0.967769861      0.955171049      0.299674571       1.67137387E-05  0.254936099       5.45755029E-07
   0.00000000      0.279310346      0.967796028      0.955206990      0.299579948      -7.44594072E-05  0.254854262       2.88709998E-07
   0.00000000      0.268965513      0.967809021      0.955225050      0.299566209      -1.52009132E-04  0.254841894       4.20957804E-07
   0.00000000      0.258620679      0.967812717      0.955230176      0.299618483      -2.24326708E-04  0.254886210       3.87430191E-07
   0.00000000      0.248275861      0.967807949      0.955223501      0.299731314      -2.94586702E-04  0.254982501       3.09199095E-07
   0.00000000      0.237931028      0.967795312      0.955206037      0.299902946      -3.64497653E-04  0.255129278       3.52039933E-07
   0.00000000      0.227586210      0.967774868      0.955177903      0.300133497      -4.34709305E-04  0.255326539       4.65661287E-07
   0.00000000      0.217241377      0.967746258      0.955138326      0.300424725      -5.05515665E-04  0.255575895       3.83704901E-07
   0.00000000      0.206896558      0.967709064      0.955086946      0.300778627      -5.76810678E-04  0.255879045       4.26545739E-07
   0.00000000      0.196551725      0.967662752      0.955022871      0.301197946      -6.48334506E-04  0.256238341       2.90572643E-07
   0.00000000      0.186206892      0.967606366      0.954945147      0.301685750      -7.19453034E-04  0.256656408       5.47617674E-07
   0.00000000      0.175862074      0.967539549      0.954852819      0.302244395      -7.89190759E-04  0.257135391       4.97326255E-07
   0.00000000      0.165517241      0.967461526      0.954745054      0.302875847      -8.56516010E-04  0.257676870       5.73694706E-07
   0.00000000      0.155172408      0.967371404      0.954620481      0.303581297      -9.20013466E-04  0.258282065       4.28408384E-07
   0.00000000      0.144827589      0.967268705      0.954478681      0.304360509      -9.78008495E-04  0.258950651       5.68106771E-07
   0.00000000      0.134482756      0.967153132      0.954319119      0.305211514      -1.02863892E-03  0.259681016       6.37024641E-07
   0.00000000      0.124137931      0.967024744      0.954141855      0.306130111      -1.06975087E-03  0.260469586       7.72997737E-07
   0.00000000      0.113793105      0.966883838      0.953947127      0.307109773      -1.09946739E-03  0.261310846       6.31436706E-07
   0.00000000      0.103448279      0.966730893      0.953735888      0.308141351      -1.11596915E-03  0.262196928       6.61239028E-07
   0.00000000       9.31034461E-02  0.966567099      0.953509867      0.309212893      -1.11744006E-03  0.263117552       8.97794962E-07
   0.00000000       8.27586204E-02  0.966394186      0.953271449      0.310309410      -1.10280339E-03  0.264059931       1.27777457E-06
   0.00000000       7.24137947E-02  0.966214716      0.953023493      0.311414063      -1.07145240E-03  0.265009731       1.11013651E-06
   0.00000000       6.20689653E-02  0.966031253      0.952770174      0.312507868      -1.02395844E-03  0.265950471       1.18464231E-06
   0.00000000       5.17241396E-02  0.965846539      0.952515066      0.313571751      -9.62150341E-04  0.266865879       1.09709799E-06
   0.00000000       4.13793102E-02  0.965663493      0.952262461      0.314587563      -8.88927607E-04  0.267740369       1.24797225E-06
   0.00000000       3.10344826E-02  0.965484917      0.952015817      0.315539628      -8.09297198E-04  0.268560410       1.11758709E-06
   0.00000000       2.06896551E-02  0.965312064      0.951777518      0.316417515      -7.30403932E-04  0.269317031       1.38953328E-06
   0.00000000       1.03448275E-02  0.965146244      0.951548398      0.317217499      -6.62462495E-04  0.270007104       1.20885670E-06
   1.01942774E-02  -1.06002917E-05  0.965799570      0.952450991      0.317052931      -8.57536041E-04  0.269830823       1.94273889E-06
   2.03885511E-02  -4.05888240E-05  0.967943966      0.955414236      0.315740377      -1.46837358E-03  0.268596321       3.21492553E-06
   3.05827484E-02  -8.74972393E-05  0.970118284      0.958420873      0.314383864      -1.99862430E-03  0.267324775       3.90037894E-06
   4.07768898E-02  -1.49138228E-04  0.972286761      0.961422384      0.313029468      -2.45092530E-03  0.266056925       4.88571823E-06
   5.09709269E-02  -2.23550553E-04  0.974419832      0.964377046      0.311714321      -2.83075473E-03  0.264825791       5.31692058E-06
   6.11648858E-02  -3.08956922E-04  0.976491213      0.967248976      0.310468197      -3.14332428E-03  0.263657659       5.99492341E-06
   7.13587478E-02  -4.03728453E-04  0.978478611      0.970006585      0.309314281      -3.39332991E-03  0.262573183       6.49690628E-06
   8.15525427E-02  -5.06357115E-04  0.980363071      0.972623289      0.308270216      -3.58562707E-03  0.261588156       6.77444041E-06
   9.17462707E-02  -6.15430705E-04  0.982129514      0.975078225      0.307347715      -3.72433499E-03  0.260712892       7.31088221E-06
  0.101939946      -7.29613879E-04  0.983766973      0.977355540      0.306553930      -3.81346396E-03  0.259953886       7.92648643E-06
  0.112133577      -8.47629446E-04  0.985267878      0.979444623      0.305891275      -3.85652599E-03  0.259313315       8.81124288E-06
  0.122327171      -9.68243345E-04  0.986628354      0.981339991      0.305358857      -3.85670224E-03  0.258790404       1.03274360E-05
  0.132520750      -1.09024998E-03  0.987848103      0.983040392      0.304951698      -3.81633779E-03  0.258380920       1.18189491E-05
  0.142714337      -1.21245917E-03  0.988929033      0.984548330      0.304661483      -3.73688224E-03  0.258077562       1.34790316E-05
  0.152907923      -1.33368257E-03  0.989875495      0.985869348      0.304476380      -3.61916702E-03  0.257870048       1.51460990E-05
  0.163101539      -1.45272142E-03  0.990693092      0.987011552      0.304381669      -3.46320192E-03  0.257745475       1.71680003E-05
  0.173295200      -1.56835280E-03  0.991389275      0.987984598      0.304359972      -3.26835085E-03  0.257688820       1.90562569E-05
  0.183488905      -1.67931605E-03  0.991971731      0.988798916      0.304392546      -3.03364615E-03  0.257683843       2.06320547E-05
  0.193682685      -1.78429752E-03  0.992448092      0.989465475      0.304460496      -2.75775348E-03  0.257714182       2.23708339E-05
  0.203876525      -1.88191328E-03  0.992826521      0.989995599      0.304545641      -2.43878784E-03  0.257764041       2.42963433E-05
  0.214070454      -1.97069068E-03  0.993114531      0.990399897      0.304631591      -2.07463931E-03  0.257819265       2.64956616E-05
  0.224264458      -2.04904471E-03  0.993319333      0.990687668      0.304704159      -1.66225899E-03  0.257867664       2.83492263E-05
  0.234458551      -2.11525219E-03  0.993447065      0.990867674      0.304751426      -1.19770260E-03  0.257898986       3.00551765E-05
  0.244652733      -2.16741930E-03  0.993502438      0.990946829      0.304763556      -6.75850257E-04  0.257904798       3.19024548E-05
  0.254846990      -2.20344099E-03  0.993489563      0.990931094      0.304732114      -9.00382583E-05  0.257877916       3.41553241E-05
  0.265041292      -2.22095218E-03  0.993411541      0.990824282      0.304649413       5.68111660E-04  0.257812142       3.62780411E-05
  0.275235593      -2.21726228E-03  0.993270218      0.990629435      0.304507822       1.30918785E-03  0.257701278       3.88103072E-05
  0.285429865      -2.18927371E-03  0.993067741      0.990349412      0.304298311       2.14623287E-03  0.257538140       4.15309332E-05
  0.295624018      -2.13337177E-03  0.992806435      0.989987612      0.304008901       3.09631438E-03  0.257313281       4.45116311E-05
  0.305817962      -2.04527588E-03  0.992489338      0.989548266      0.303623497       4.18060785E-03  0.257014126       4.79090959E-05
  0.316011488      -1.91983546E-03  0.992121279      0.989038289      0.303119332       5.42746345E-03  0.256622702       5.16362488E-05
  0.326204360      -1.75073801E-03  0.991709709      0.988467813      0.302465081       6.87398901E-03  0.256114632       5.55589795E-05
  0.336396307      -1.53008103E-03  0.991264760      0.987851381      0.301618248       8.57094396E-03  0.255457073       6.00158237E-05
  0.346586645      -1.24772848E-03  0.990800679      0.987208903      0.300521374       1.05898194E-02  0.254606485       6.50887378E-05
  0.356774658      -8.90274358E-04  0.990335763      0.986566305      0.299098074       1.30348653E-02  0.253506869       7.10031018E-05
  0.366958946      -4.39326104E-04  0.989894688      0.985958159      0.297246724       1.60845220E-02  0.252088636       7.80611299E-05
  0.377137065       1.33766516E-04  0.989524543      0.985451460      0.294875413       2.05324311E-02  0.250334382       8.76216218E-05
  0.387299746       9.32033930E-04  0.989126027      0.984908640      0.292574555       2.72565968E-02  0.248872459       1.00532547E-04
  0.397434235       2.03104783E-03  0.988472283      0.984015226      0.291012079       3.58901583E-02  0.248374075       1.18644442E-04
  0.407523632       3.48527054E-03  0.987471342      0.982647717      0.290465236       4.63528708E-02  0.249203518       1.46306586E-04
  0.417543113       5.36030158E-03  0.986016810      0.980665803      0.291336775       5.91172799E-02  0.251927108       1.91090629E-04
  0.427456856       7.73026003E-03  0.983849943      0.977725565      0.294536680       7.48290345E-02  0.257640004       2.68361531E-04
  0.437217921       1.06651187E-02  0.980481803      0.973179460      0.301805705       9.40847993E-02  0.268179744       4.08880413E-04
  0.446780443       1.41935814E-02  0.975047648      0.965881646      0.316210210      0.116591692      0.286182255       6.62573613E-04
  0.456144422       1.82216074E-02  0.966225624      0.954060197      0.342264980      0.138877988      0.314156562       1.07259117E-03
  0.465438336       2.24102195E-02  0.952937067      0.936253488      0.383074492      0.150978774      0.351081789       1.61993504E-03
  0.474928796       2.61229333E-02  0.936744213      0.914585054      0.432074398      0.138732910      0.388150036       2.19817832E-03
  0.484786808       2.86871437E-02  0.922847509      0.896124244      0.471443325       9.83359888E-02  0.413041949       2.73152813E-03
  0.494905144       2.98680626E-02  0.915434539      0.886565745      0.488486797       4.51733731E-02  0.421304524       3.29898298E-03
  0.505094886       2.98680626E-02  0.913496792      0.884533048      0.486057460      -6.75352290E-03  0.417505294       3.97017598E-03
  0.515213192       2.86871418E-02  0.914008856      0.886141837      0.468532532      -5.91369979E-02  0.405351102       5.00276312E-03
  0.525071204       2.61229314E-02  0.916978657      0.891453505      0.435409248     -0.108565032      0.384645849       6.43751770E-03
  0.534561634       2.24102195E-02  0.923984826      0.902182877      0.392303139     -0.138466477      0.355826199       7.74544477E-03
  0.543855608       1.82216056E-02  0.934197247      0.916869879      0.350424916     -0.139934972      0.321903020       8.50499794E-03
  0.553219557       1.41935805E-02  0.944100678      0.930773079      0.317623436     -0.121783979      0.289547533       8.79169628E-03
  0.562782109       1.06651178E-02  0.951118052      0.940502703      0.295794994      -9.83945280E-02  0.264943391       8.82317498E-03
  0.572543144       7.73025956E-03  0.955183566      0.946091712      0.282994479      -7.74990171E-02  0.249169052       8.77665821E-03
  0.582456887       5.36030112E-03  0.957213223      0.948891938      0.276346624      -6.06832951E-02  0.240166485       8.76042712E-03
  0.592476368       3.48527008E-03  0.957987010      0.950013280      0.273647100      -4.73691151E-02  0.235696405       8.81015416E-03