 title = "grid"
                                   variables = "x","y","rho","P","u","v","M","S"
 zone n=        3000  e =        5742  et=quadrilateral, f=fepoint
   0.00000000       0.00000000      0.970493972      0.958937109      0.286976695      -3.22327578E-05  0.243996710       3.27825546E-07
   1.00000000       0.00000000      0.961112499      0.955336690      0.428522795      -2.97335535E-03  0.363269776       9.83786955E-03
   1.00000000      0.300000012      0.926271677      0.926721156      0.127392486      -3.02852225E-03  0.107670590       3.11202798E-02
   0.00000000      0.300000012      0.974221945      0.964117825      0.285255939      -8.44643626E-04  0.242346361       2.08597630E-05
   1.00000000       1.03448275E-02  0.961224377      0.953493655      0.429653674      -1.46802990E-02  0.364805490       7.74387550E-03
   1.00000000       2.06896551E-02  0.961225212      0.951790154      0.425913244      -3.03410906E-02  0.362658858       5.95450215E-03
   1.00000000       3.10344826E-02  0.959778309      0.949096501      0.420202017      -4.60818335E-02  0.359269530       5.22934832E-03
   1.00000000       4.13793102E-02  0.957787573      0.945943773      0.413917452      -6.12850599E-02  0.355844706       4.80878167E-03
   1.00000000       5.17241396E-02  0.955759704      0.942866147      0.407996923      -7.54139349E-02  0.353050828       4.51729819E-03
   1.00000000       6.20689653E-02  0.953995645      0.940246344      0.402857155      -8.81479606E-02  0.351070613       4.32125293E-03
   1.00000000       7.24137947E-02  0.952605069      0.938241065      0.398480177      -9.94272530E-02  0.349749386       4.22844291E-03
   1.00000000       8.27586204E-02  0.951555073      0.936819673      0.394588500     -0.109377652      0.348774165       4.25635092E-03
   1.00000000       9.31034461E-02  0.950758457      0.935851872      0.390808046     -0.118191108      0.347804666       4.39523160E-03
   1.00000000      0.103448279      0.950149059      0.935184717      0.386797041     -0.126035616      0.346559793       4.57976758E-03
   1.00000000      0.113793105      0.949698627      0.934683263      0.382347941     -0.133024231      0.344879001       4.70723398E-03
   1.00000000      0.124137931      0.949376106      0.934243977      0.377436578     -0.139227137      0.342745185       4.71271574E-03
   1.00000000      0.134482756      0.949105740      0.933790326      0.372196048     -0.144694582      0.340254009       4.62569296E-03
   1.00000000      0.144827589      0.948777974      0.933265984      0.366824716     -0.149458036      0.337539315       4.54762392E-03
   1.00000000      0.155172408      0.948304415      0.932630777      0.361478925     -0.153510898      0.334690303       4.56569903E-03
   1.00000000      0.165517241      0.947651207      0.931861937      0.356228977     -0.156801477      0.331719041       4.70568240E-03
   1.00000000      0.175862074      0.946824729      0.930958211      0.351092637     -0.159257263      0.328592271       4.95691039E-03
   1.00000000      0.186206892      0.945838213      0.929941237      0.346058458     -0.160802230      0.325250477       5.32331876E-03
   1.00000000      0.196551725      0.944682062      0.928851247      0.340993732     -0.161296621      0.321512610       5.86288236E-03
   1.00000000      0.206896558      0.943274319      0.927739263      0.335354626     -0.160319507      0.316767901       6.75282441E-03
   1.00000000      0.217241377      0.941404521      0.926664174      0.327775776     -0.156838670      0.309533745       8.37120973E-03
   1.00000000      0.227586210      0.938806295      0.925699174      0.316001683     -0.149134412      0.297401786       1.11985616E-02
   1.00000000      0.237931028      0.935484409      0.924938321      0.297689825     -0.135423869      0.277975321       1.53389145E-02
   1.00000000      0.248275861      0.932030857      0.924474776      0.271912783     -0.115083508      0.250561267       2.00155713E-02
   1.00000000      0.258620679      0.929373741      0.924354374      0.240291551      -8.95989537E-02  0.217329785       2.38823220E-02
   1.00000000      0.268965513      0.927945912      0.924540460      0.206561968      -6.22516051E-02  0.182667822       2.62361318E-02
   1.00000000      0.279310346      0.927168548      0.924925148      0.174295947      -3.65267992E-02  0.150689378       2.78253667E-02
   1.00000000      0.289655179      0.925940931      0.925424039      0.142758235      -1.45472484E-02  0.121311396       3.02195102E-02
  0.989898980      0.300000012      0.922442734      0.921558022      0.139211237      -8.49099085E-03  0.117930189       3.13324332E-02
  0.979797959      0.300000012      0.913557470      0.909540772      0.162856147      -1.13614174E-02  0.138277411       3.17571759E-02
  0.969696999      0.300000012      0.905235231      0.897544801      0.191966683      -1.37886954E-02  0.163354829       3.12923715E-02
  0.959595978      0.300000012      0.898721039      0.885639548      0.224569827      -1.55516351E-02  0.191650629       2.80503593E-02
  0.949494958      0.300000012      0.894012272      0.874045491      0.257807821      -1.62387323E-02  0.220798746       2.22272016E-02
  0.939393938      0.300000012      0.889402568      0.863145113      0.288619667      -1.58308707E-02  0.247982770       1.69149525E-02
  0.929292917      0.300000012      0.884076774      0.853330553      0.314936727      -1.47604262E-02  0.271220237       1.38876475E-02
  0.919191897      0.300000012      0.878673851      0.844820559      0.336125910      -1.35390293E-02  0.289949000       1.24470368E-02
  0.909090936      0.300000012      0.873811901      0.837616324      0.352615178      -1.24739343E-02  0.304575503       1.16510876E-02
  0.898989916      0.300000012      0.869656801      0.831596911      0.365252018      -1.16490033E-02  0.315839827       1.11118034E-02
  0.888888896      0.300000012      0.866214275      0.826654017      0.374834269      -1.10300407E-02  0.324424773       1.07031539E-02
  0.878787875      0.300000012      0.863518298      0.822782278      0.381915927      -1.05527956E-02  0.330797911       1.03726313E-02
  0.868686855      0.300000012      0.861673176      0.820090532      0.386802912      -1.01634637E-02  0.335209250       1.00903958E-02
  0.858585835      0.300000012      0.860820532      0.818747163      0.389641762      -9.82948393E-03  0.337769955       9.83700901E-03
  0.848484874      0.300000012      0.861083508      0.818902075      0.390529186      -9.53693874E-03  0.338552177       9.59857553E-03
  0.838383853      0.300000012      0.862522781      0.820628405      0.389593124      -9.28258989E-03  0.337662280       9.36635584E-03
  0.828282833      0.300000012      0.865122795      0.823903203      0.387024552      -9.06613283E-03  0.335269809       9.13514197E-03
  0.818181813      0.300000012      0.868803501      0.828621924      0.383065909      -8.88517126E-03  0.331595659       8.90231878E-03
  0.808080792      0.300000012      0.873445511      0.834630609      0.377980053      -8.73417594E-03  0.326882392       8.66730511E-03
  0.797979772      0.300000012      0.878915966      0.841758192      0.372018039      -8.60545039E-03  0.321363211       8.42992216E-03
  0.787878811      0.300000012      0.885086954      0.849838853      0.365398854      -8.49087071E-03  0.315242708       8.18863884E-03
  0.777777791      0.300000012      0.891843975      0.858724654      0.358301699      -8.38346593E-03  0.308689028       7.94275478E-03
  0.767676771      0.300000012      0.899088442      0.868286729      0.350868404      -8.27850867E-03  0.301835775       7.69010186E-03
  0.757575750      0.300000012      0.906736314      0.878415525      0.343211412      -8.17339774E-03  0.294789046       7.42946193E-03
  0.747474730      0.300000012      0.914714396      0.889016211      0.335421532      -8.06731358E-03  0.287634134       7.16092810E-03
  0.737373710      0.300000012      0.922958076      0.900005877      0.327574402      -7.96025712E-03  0.280441612       6.88608736E-03
  0.727272749      0.300000012      0.931409538      0.911310613      0.319734842      -7.85275269E-03  0.273271292       6.60722889E-03
  0.717171729      0.300000012      0.940017879      0.922864974      0.311958522      -7.74518447E-03  0.266174018       6.32658787E-03
  0.707070708      0.300000012      0.948737681      0.934610128      0.304292679      -7.63735082E-03  0.259192288       6.04627654E-03
  0.696969688      0.300000012      0.957528532      0.946493685      0.296774983      -7.52860075E-03  0.252359688       5.76865673E-03
  0.686868668      0.300000012      0.966353953      0.958468974      0.289433718      -7.41785532E-03  0.245700911       5.49704861E-03
  0.676767647      0.300000012      0.975181580      0.970494211      0.282287300      -7.30379671E-03  0.239231795       5.23441844E-03
  0.666666687      0.300000012      0.983982086      0.982532084      0.275344551      -7.18480488E-03  0.232959539       4.98434249E-03
  0.656565666      0.300000012      0.992728531      0.994547606      0.268606216      -7.05972174E-03  0.226884305       4.74988995E-03
  0.646464646      0.300000012       1.00139594       1.00650632      0.262067944      -6.92781620E-03  0.221002012       4.53225477E-03
  0.636363626      0.300000012       1.00995791       1.01837039      0.255724788      -6.78947289E-03  0.215308204       4.33153939E-03
  0.626262605      0.300000012       1.01838315       1.03009391      0.249578714      -6.64692232E-03  0.209804460       4.14731633E-03
  0.616161644      0.300000012       1.02663100       1.04161561      0.243649736      -6.50413800E-03  0.204507902       3.97733040E-03
  0.606060624      0.300000012       1.03464496       1.05285096      0.237981752      -6.36282470E-03  0.199455976       3.82000208E-03
  0.595959604      0.300000012       1.04234111       1.06367707      0.232652813      -6.22765301E-03  0.194715217       3.67494300E-03
  0.585858583      0.300000012       1.04959476       1.07391012      0.227793202      -6.10579923E-03  0.190396756       3.54048796E-03
  0.575757563      0.300000012       1.05622303       1.08328116      0.223602951      -6.00487506E-03  0.186671183       3.41546535E-03
  0.565656543      0.300000012       1.06196272       1.09140348      0.220370591      -5.93292573E-03  0.183784515       3.29810008E-03
  0.555555582      0.300000012       1.06645536       1.09774792      0.218484506      -5.89644350E-03  0.182068482       3.18409875E-03
  0.545454562      0.300000012       1.06924760       1.10164654      0.218422234      -5.89812547E-03  0.181932002       3.06866691E-03
  0.535353541      0.300000012       1.06983447       1.10235953      0.220693827      -5.93234738E-03  0.183814466       2.94738263E-03
  0.525252521      0.300000012       1.06777143       1.09924388      0.225718796      -5.98150352E-03  0.188082442       2.81932950E-03
  0.515151501      0.300000012       1.06286407       1.09203053      0.233638078      -6.01508096E-03  0.194869995       2.68473476E-03
  0.505050480      0.300000012       1.05538082       1.08112979      0.244113103      -5.99282840E-03  0.203902990       2.54433230E-03
  0.494949490      0.300000012       1.04614556       1.06775165      0.256231517      -5.87059837E-03  0.214409202       2.39761174E-03
  0.484848499      0.300000012       1.03635788       1.05363524      0.268670410      -5.62911574E-03  0.225247949       2.24871188E-03
  0.474747479      0.300000012       1.02718377       1.04044914      0.280139148      -5.31355105E-03  0.235288933       2.10327469E-03
  0.464646459      0.300000012       1.01937437       1.02924907      0.289836675      -5.00838691E-03  0.243815199       1.96483452E-03
  0.454545468      0.300000012       1.01314425       1.02032030      0.297594070      -4.76975134E-03  0.250659078       1.83452480E-03
  0.444444448      0.300000012       1.00831258       1.01338899      0.303690642      -4.60696174E-03  0.256051213       1.71064865E-03
  0.434343427      0.300000012       1.00453126       1.00795245      0.308573186      -4.50420985E-03  0.260376722       1.59163331E-03
  0.424242437      0.300000012       1.00146139       1.00352657      0.312656075      -4.44061263E-03  0.263997227       1.47596351E-03
  0.414141417      0.300000012      0.998851776      0.999756455      0.316238731      -4.39777924E-03  0.267175376       1.36490888E-03
  0.404040396      0.300000012      0.996550739      0.996426880      0.319499820      -4.36168304E-03  0.270068586       1.25781051E-03
  0.393939406      0.300000012      0.994482338      0.993430853      0.322525561      -4.32257727E-03  0.272752583       1.15528679E-03
  0.383838385      0.300000012      0.992618799      0.990728319      0.325342953      -4.27401811E-03  0.275250971       1.05706393E-03
  0.373737365      0.300000012      0.990955770      0.988313019      0.327947497      -4.21185791E-03  0.277559459       9.63689294E-04
  0.363636374      0.300000012      0.989497483      0.986190736      0.330320418      -4.13331995E-03  0.279661268       8.75768717E-04
  0.353535354      0.300000012      0.988247812      0.984366357      0.332439244      -4.03759908E-03  0.281536579       7.93403946E-04
  0.343434334      0.300000012      0.987206042      0.982838690      0.334285736      -3.92612768E-03  0.283169568       7.16801267E-04
  0.333333343      0.300000012      0.986367464      0.981600404      0.335845768      -3.79888318E-03  0.284548074       6.45893626E-04
  0.323232323      0.300000012      0.985724390      0.980639756      0.337107807      -3.65652749E-03  0.285662562       5.79809770E-04
  0.313131303      0.300000012      0.985267222      0.979943693      0.338061869      -3.50044528E-03  0.286504805       5.19130379E-04
  0.303030312      0.300000012      0.984987915      0.979500830      0.338697344      -3.33249522E-03  0.287066042       4.64079902E-04
  0.292929292      0.300000012      0.984881639      0.979304254      0.339001119      -3.15488339E-03  0.287335366       4.14458103E-04
  0.282828271      0.300000012      0.984949291      0.979354620      0.338956088      -2.97021307E-03  0.287298322       3.69717367E-04
  0.272727281      0.300000012      0.985197306      0.979660749      0.338540882      -2.78089754E-03  0.286936313       3.29716131E-04
  0.262626261      0.300000012      0.985638142      0.980240285      0.337729812      -2.58922623E-03  0.286227018       2.94798985E-04
  0.252525240      0.300000012      0.986289203      0.981117189      0.336493641      -2.39733164E-03  0.285144866       2.64574308E-04
  0.242424250      0.300000012      0.987170160      0.982318521      0.334802061      -2.20691017E-03  0.283663452       2.38320325E-04
  0.232323229      0.300000012      0.988299787      0.983871400      0.332626998      -2.01949594E-03  0.281758249       2.16761604E-04
  0.222222224      0.300000012      0.989693105      0.985796690      0.329946488      -1.83649128E-03  0.279410571       1.99369621E-04
  0.212121218      0.300000012      0.991358042      0.988104939      0.326748967      -1.65948342E-03  0.276611060       1.84930861E-04
  0.202020198      0.300000012      0.993290722      0.990791380      0.323038489      -1.49054953E-03  0.273364365       1.73378736E-04
  0.191919193      0.300000012      0.995473385      0.993830800      0.318838865      -1.33251690E-03  0.269692957       1.63365621E-04
  0.181818187      0.300000012      0.997871935      0.997176111      0.314198047      -1.18883664E-03  0.265640318       1.54572423E-04
  0.171717167      0.300000012       1.00043547       1.00075543      0.309190601      -1.06373488E-03  0.261273503       1.45644735E-04
  0.161616161      0.300000012       1.00309384       1.00447071      0.303919017      -9.61273443E-04  0.256683648       1.35991722E-04
  0.151515156      0.300000012       1.00575829       1.00819790      0.298511505      -8.84733337E-04  0.251983970       1.26033789E-04
  0.141414136      0.300000012       1.00832224       1.01178718      0.293118089      -8.35730927E-04  0.247306451       1.15311239E-04
  0.131313130      0.300000012       1.01066196       1.01506484      0.287903607      -8.13563005E-04  0.242795631       1.04696490E-04
  0.121212125      0.300000012       1.01263905       1.01783645      0.283039123      -8.15195148E-04  0.238601163       9.55024734E-05
  0.111111112      0.300000012       1.01410544       1.01989257      0.278693885      -8.35781684E-04  0.234871179       8.77054408E-05
  0.101010099      0.300000012       1.01490831       1.02101684      0.275026977      -8.69782234E-04  0.231745005       8.13929364E-05
   9.09090936E-02  0.300000012       1.01489913       1.02099967      0.272179127      -9.11710260E-04  0.229346395       7.73351640E-05
   8.08080807E-02  0.300000012       1.01394582       1.01965499      0.270265162      -9.57037206E-04  0.227776825       7.50184990E-05
   7.07070678E-02  0.300000012       1.01194715       1.01684141      0.269363940      -1.00236584E-03  0.227107137       7.42282718E-05
   6.06060624E-02  0.300000012       1.00884950       1.01248586      0.269507557      -1.04502996E-03  0.227367774       7.36820512E-05
   5.05050495E-02  0.300000012       1.00465930       1.00660205      0.270670056      -1.08253292E-03  0.228538930       7.24170823E-05
   4.04040404E-02  0.300000012      0.999452114      0.999302506      0.272759587      -1.11165305E-03  0.230543092       6.95449125E-05
   3.03030312E-02  0.300000012      0.993372738      0.990797937      0.275616020      -1.12788728E-03  0.233242497       6.43997919E-05
   2.02020202E-02  0.300000012      0.986625433      0.981380224      0.279016972      -1.12314953E-03  0.236443639       5.54239377E-05
   1.01010101E-02  0.300000012      0.979468107      0.971413076      0.282669127      -1.06812292E-03  0.239889160       4.03430313E-05
   0.00000000      0.289655179      0.973725319      0.963427484      0.285925895      -5.04601630E-04  0.242939904       1.83777884E-05
   0.00000000      0.279310346      0.973533928      0.963162005      0.286605716      -2.86408263E-04  0.243526906       1.79596245E-05
   0.00000000      0.268965513      0.973339736      0.962892175      0.287135988      -1.32278117E-04  0.243987203       1.70925632E-05
   0.00000000      0.258620679      0.973135889      0.962608635      0.287568808      -3.92936045E-06  0.244365364       1.57868490E-05
   0.00000000      0.248275861      0.972924709      0.962315142      0.287918866       1.07856678E-04  0.244673610       1.47596002E-05
   0.00000000      0.237931028      0.972711623      0.962018549      0.288191885       2.04656506E-04  0.244916588       1.31111592E-05
   0.00000000      0.227586210      0.972501338      0.961726248      0.288392216       2.86589086E-04  0.245097637       1.18957832E-05
   0.00000000      0.217241377      0.972298622      0.961444199      0.288525969       3.53458629E-04  0.245221749       1.04922801E-05
   0.00000000      0.206896558      0.972106636      0.961176932      0.288601518       4.05468367E-04  0.245295927       8.87177885E-06
   0.00000000      0.196551725      0.971926928      0.960927069      0.288628787       4.43503523E-04  0.245328322       7.78958201E-06
   0.00000000      0.186206892      0.971760094      0.960695028      0.288618326       4.69045946E-04  0.245328084       6.56768680E-06
   0.00000000      0.175862074      0.971605778      0.960480511      0.288580328       4.83953190E-04  0.245303661       5.57675958E-06
   0.00000000      0.165517241      0.971463025      0.960281909      0.288524002       4.90216713E-04  0.245263174       4.55230474E-06
   0.00000000      0.155172408      0.971330225      0.960097373      0.288456440       4.89883183E-04  0.245212525       3.76068056E-06
   0.00000000      0.144827589      0.971206486      0.959925413      0.288382262       4.84592281E-04  0.245155826       2.97464430E-06
   0.00000000      0.134482756      0.971090734      0.959764719      0.288303912       4.75566834E-04  0.245095104       2.39722431E-06
   0.00000000      0.124137931      0.970982373      0.959614515      0.288221747       4.63594130E-04  0.245030746       2.09920108E-06
   0.00000000      0.113793105      0.970881402      0.959474146      0.288134724       4.48428444E-04  0.244961917       1.42306089E-06
   0.00000000      0.103448279      0.970787764      0.959344327      0.288041323       4.29378852E-04  0.244887248       1.16974115E-06
   0.00000000       9.31034461E-02  0.970702112      0.959225476      0.287939847       4.05247876E-04  0.244805291       8.21426511E-07
   0.00000000       8.27586204E-02  0.970624924      0.959118664      0.287829965       3.74293508E-04  0.244715720       7.76723027E-07
   0.00000000       7.24137947E-02  0.970556557      0.959024072      0.287712812       3.34670593E-04  0.244619533       7.07805157E-07
   0.00000000       6.20689653E-02  0.970497847      0.958942652      0.287591666       2.84663722E-04  0.244519502       5.49480319E-07
   0.00000000       5.17241396E-02  0.970448792      0.958874524      0.287472159       2.22807939E-04  0.244420320       2.53319740E-07
   0.00000000       4.13793102E-02  0.970409393      0.958820105      0.287361294       1.49635380E-04  0.244327992       3.22237611E-07
   0.00000000       3.10344826E-02  0.970380247      0.958779871      0.287266344       6.90171946E-05  0.244248703       3.83704901E-07
   0.00000000       2.06896551E-02  0.970362484      0.958755255      0.287192792      -8.22578568E-06  0.244187057       3.52039933E-07
   0.00000000       1.03448275E-02  0.970359504      0.958751261      0.287139773      -5.53216596E-05  0.244142115       4.97326255E-07
   1.01942774E-02  -1.06002917E-05  0.969869912      0.958074808      0.287442714      -1.83693206E-04  0.244424328       1.21258199E-06
   2.03885511E-02  -4.05888240E-05  0.968280494      0.955878973      0.288640678      -5.54956263E-04  0.245523721       2.87033617E-06
   3.05827484E-02  -8.74972393E-05  0.966448784      0.953351080      0.290269315      -9.27533896E-04  0.247003064       5.67920506E-06
   4.07768898E-02  -1.49138228E-04  0.964452922      0.950598359      0.292263627      -1.28592702E-03  0.248803765       8.33161175E-06
   5.09709269E-02  -2.23550553E-04  0.962376893      0.947737157      0.294525951      -1.62905524E-03  0.250838846       1.07008964E-05
   6.11648858E-02  -3.08956922E-04  0.960297585      0.944874704      0.296946347      -1.95580185E-03  0.253010869       1.39195472E-05
   7.13587478E-02  -4.03728453E-04  0.958280087      0.942100942      0.299414128      -2.26388592E-03  0.255222052       1.83545053E-05
   8.15525427E-02  -5.06357115E-04  0.956375122      0.939485669      0.301824480      -2.55017797E-03  0.257380128       2.43894756E-05
   9.17462707E-02  -6.15430705E-04  0.954618752      0.937078297      0.304080844      -2.81049986E-03  0.259400427       3.20561230E-05
  0.101939946      -7.29613879E-04  0.953033745      0.934909642      0.306097299      -3.04079358E-03  0.261207849       4.15500253E-05
  0.112133577      -8.47629446E-04  0.951631248      0.932994664      0.307802051      -3.23816645E-03  0.262740046       5.29438257E-05
  0.122327171      -9.68243345E-04  0.950413287      0.931335986      0.309140742      -3.40196164E-03  0.263949960       6.65057451E-05
  0.132520750      -1.09024998E-03  0.949376881      0.929927945      0.310079753      -3.53417057E-03  0.264808744       8.10232013E-05
  0.142714337      -1.21245917E-03  0.948517144      0.928763509      0.310607582      -3.64006055E-03  0.265306473       9.64496285E-05
  0.152907923      -1.33368257E-03  0.947832167      0.927839696      0.310733438      -3.72727448E-03  0.265451044       1.12669542E-04
  0.163101539      -1.45272142E-03  0.947329700      0.927166045      0.310480356      -3.80509114E-03  0.265261710       1.28764659E-04
  0.173295200      -1.56835280E-03  0.947032034      0.926772892      0.309874922      -3.88277997E-03  0.264759868       1.44593418E-04
  0.183488905      -1.67931605E-03  0.946981251      0.926718831      0.308934033      -3.96833336E-03  0.263957649       1.61278993E-04
  0.193682685      -1.78429752E-03  0.947242439      0.927094281      0.307652503      -4.06664656E-03  0.262846977       1.80270523E-04
  0.203876525      -1.88191328E-03  0.947904587      0.928022325      0.305993795      -4.17929096E-03  0.261391938       2.02549621E-04
  0.214070454      -1.97069068E-03  0.949075937      0.929653227      0.303887635      -4.30422323E-03  0.259526998       2.29449943E-04
  0.224264458      -2.04904471E-03  0.950875282      0.932152212      0.301237494      -4.43598302E-03  0.257164180       2.62180343E-04
  0.234458551      -2.11525219E-03  0.953417838      0.935680509      0.297937304      -4.56599426E-03  0.254208267       3.01664695E-04
  0.244652733      -2.16741930E-03  0.956796885      0.940369904      0.293895781      -4.68258373E-03  0.250579178       3.47876921E-04
  0.254846990      -2.20344099E-03  0.961063087      0.946296155      0.289063513      -4.77106310E-03  0.246235579       4.01645899E-04
  0.265041292      -2.22095218E-03  0.966207266      0.953453124      0.283457249      -4.81400732E-03  0.241196856       4.62636352E-04
  0.275235593      -2.21726228E-03  0.972152293      0.961741745      0.277170807      -4.79234569E-03  0.235551715       5.30626625E-04
  0.285429865      -2.18927371E-03  0.978758752      0.970976174      0.270367891      -4.68631880E-03  0.229450956       6.04747795E-04
  0.295624018      -2.13337177E-03  0.985844433      0.980909944      0.263255835      -4.47568251E-03  0.223082960       6.84749801E-04
  0.305817962      -2.04527588E-03  0.993214369      0.991275132      0.256047785      -4.13970696E-03  0.216639772       7.69132283E-04
  0.316011488      -1.91983546E-03   1.00068939       1.00182474      0.248923481      -3.65454378E-03  0.210282147       8.58190877E-04
  0.326204360      -1.75073801E-03   1.00813067       1.01236439      0.241999283      -2.99137784E-03  0.204114214       9.51732974E-04
  0.336396307      -1.53008103E-03   1.01545203       1.02277267      0.235311642      -2.11281073E-03  0.198169604       1.04991626E-03
  0.346586645      -1.24772848E-03   1.02262247       1.03300440      0.228813469      -9.68524488E-04  0.192410171       1.15286652E-03
  0.356774658      -8.90274358E-04   1.02966070       1.04308581      0.222380012       5.11471066E-04  0.186732531       1.26240216E-03
  0.366958946      -4.39326104E-04   1.03662014       1.05309236      0.215824440       2.44460697E-03  0.180984363       1.37922540E-03
  0.377137065       1.33766516E-04   1.04356396       1.06311834      0.208951429       5.38576348E-03  0.175022647       1.50792487E-03
  0.387299746       9.32033930E-04   1.05044949       1.07310462      0.202107191       9.86866932E-03  0.169200420       1.65057369E-03
  0.397434235       2.03104783E-03   1.05710983       1.08280790      0.195757449       1.55119523E-02  0.163982615       1.80353597E-03
  0.407523632       3.48527054E-03   1.06332695       1.09191263      0.190234095       2.21949872E-02  0.159734875       1.96719170E-03
  0.417543113       5.36030158E-03   1.06873190       1.09988570      0.186139315       3.02110147E-02  0.157101676       2.14433670E-03
  0.427456856       7.73026003E-03   1.07278454       1.10594642      0.184562802       4.00221683E-02  0.157198191       2.34070048E-03
  0.437217921       1.06651187E-02   1.07483733       1.10916328      0.187194601       5.21707349E-02  0.161676288       2.56884098E-03
  0.446780443       1.41935814E-02   1.07418120       1.10852849      0.196530595       6.67937174E-02  0.172690243       2.85120308E-03
  0.456144422       1.82216074E-02   1.07005036       1.10295761      0.215918034       8.20655599E-02  0.192286000       3.20734456E-03
  0.465438336       2.24102195E-02   1.06184256       1.09157872      0.247871518       9.16669592E-02  0.220292822       3.61707062E-03
  0.474928796       2.61229333E-02   1.05015409       1.07520688      0.288771659       8.57875273E-02  0.251614928       4.00139764E-03
  0.484786808       2.86871437E-02   1.03751647       1.05742300      0.327399552       6.06366731E-02  0.278747350       4.27306443E-03
  0.494905144       2.98680626E-02   1.02655137       1.04202294      0.354958951       2.48775464E-02  0.298490018       4.47694212E-03
  0.505094886       2.98680626E-02   1.01777458       1.02986383      0.371572107      -1.33962985E-02  0.312389940       4.76075988E-03
  0.515213192       2.86871418E-02   1.01069176       1.02040112      0.377466500      -5.65265454E-02  0.321036369       5.30672912E-03
  0.525071204       2.61229314E-02   1.00654888       1.01541638      0.369152665     -0.101541638      0.322162688       6.16021128E-03
  0.534561634       2.24102195E-02   1.00768387       1.01800478      0.348782241     -0.132958293      0.313863486       7.12833507E-03
  0.543855608       1.82216056E-02   1.01429093       1.02837026      0.325044096     -0.140358359      0.297174722       8.10960121E-03
  0.553219557       1.41935805E-02   1.02374268       1.04301107      0.305156648     -0.129129618      0.277445883       9.26044956E-03
  0.562782109       1.06651178E-02   1.03401601       1.05909824      0.290932238     -0.111056522      0.260052860       1.05874147E-02
  0.572543144       7.73025956E-03   1.04551315       1.07701910      0.280132860      -9.34074298E-02  0.245892733       1.18861962E-02
  0.582456887       5.36030112E-03   1.05979192       1.09868765      0.269570947      -7.85167366E-02  0.233058095       1.28148496E-02
  0.592476368       3.48527008E-03   1.07825136       1.12580907      0.256978601      -6.65327460E-02  0.219557941       1.30251311E-02