 title = "grid"
                                   variables = "x","y","rho","P","u","v","M","S"
 zone n=        3000  e =        5742  et=quadrilateral, f=fepoint
   0.00000000       0.00000000      0.954517424      0.936909318      0.358174235      -1.27706051E-04  0.305543810       3.93018126E-07
   1.00000000       0.00000000      0.945051551      0.932410359      0.284383655       4.69297956E-04  0.241972148       9.13988240E-03
   1.00000000      0.300000012      0.951171041      0.932579339      0.339175195       2.24172290E-05  0.289498627       2.84917653E-04
   0.00000000      0.300000012      0.954309165      0.936622858      0.360762179      -1.68293609E-05  0.307764947       3.16649675E-08
   1.00000000       1.03448275E-02  0.946392834      0.932446718      0.290336102       6.69542060E-04  0.247207642       7.19331019E-03
   1.00000000       2.06896551E-02  0.947933197      0.932475328      0.297745913       8.30219884E-04  0.253719389       4.94712964E-03
   1.00000000       3.10344826E-02  0.948952854      0.932498872      0.303573281       9.02921776E-04  0.258821070       3.46726365E-03
   1.00000000       4.13793102E-02  0.949637115      0.932518423      0.308471769       9.14527685E-04  0.263089448       2.47908011E-03
   1.00000000       5.17241396E-02  0.950099289      0.932534814      0.312657833       8.84010980E-04  0.266722113       1.81552209E-03
   1.00000000       6.20689653E-02  0.950412095      0.932548583      0.316240162       8.24978750E-04  0.269820362       1.36940740E-03
   1.00000000       7.24137947E-02  0.950624526      0.932560205      0.319300264       7.47274200E-04  0.272459835       1.06902793E-03
   1.00000000       8.27586204E-02  0.950768769      0.932569921      0.321910530       6.58417062E-04  0.274706423       8.66994262E-04
   1.00000000       9.31034461E-02  0.950867116      0.932577908      0.324138522       5.64086193E-04  0.276620656       7.30758533E-04
   1.00000000      0.103448279      0.950934470      0.932584345      0.326046795       4.68753191E-04  0.278257966       6.38486817E-04
   1.00000000      0.113793105      0.950981200      0.932589471      0.327692300       3.75666859E-04  0.279668301       5.75194135E-04
   1.00000000      0.124137931      0.951014519      0.932593286      0.329124033       2.87396921E-04  0.280894428       5.30244783E-04
   1.00000000      0.134482756      0.951038659      0.932595789      0.330383420       2.05965538E-04  0.281972438       4.97346744E-04
   1.00000000      0.144827589      0.951057255      0.932597220      0.331503242       1.32880741E-04  0.282930702       4.71541658E-04
   1.00000000      0.155172408      0.951072216      0.932597756      0.332509339       6.89498193E-05  0.283791512       4.50124964E-04
   1.00000000      0.165517241      0.951084793      0.932597697      0.333420992       1.51378326E-05  0.284571499       4.31511551E-04
   1.00000000      0.175862074      0.951095402      0.932596624      0.334251523      -2.83375703E-05  0.285282075       4.14781272E-04
   1.00000000      0.186206892      0.951105118      0.932595193      0.335010290      -6.13371813E-05  0.285931349       3.98883596E-04
   1.00000000      0.196551725      0.951114476      0.932593465      0.335703105      -8.40272260E-05  0.286524355       3.83283943E-04
   1.00000000      0.206896558      0.951123416      0.932591558      0.336333483      -9.68246241E-05  0.287064016       3.68105248E-04
   1.00000000      0.217241377      0.951132059      0.932589471      0.336902887      -1.00246114E-04  0.287551671       3.53084877E-04
   1.00000000      0.227586210      0.951140583      0.932587445      0.337411433      -9.51300099E-05  0.287987292       3.38379294E-04
   1.00000000      0.237931028      0.951148570      0.932585835      0.337858588      -8.25526004E-05  0.288370401       3.24942172E-04
   1.00000000      0.248275861      0.951156139      0.932584703      0.338243097      -6.38661004E-05  0.288699985       3.12574208E-04
   1.00000000      0.258620679      0.951163113      0.932584107      0.338563293      -4.07156585E-05  0.288974404       3.01681459E-04
   1.00000000      0.268965513      0.951169670      0.932584584      0.338817328      -1.55493599E-05  0.289192140       2.92541459E-04
   1.00000000      0.279310346      0.951175392      0.932586730      0.339004517       7.96115728E-06  0.289352447       2.86430120E-04
   1.00000000      0.289655179      0.951180935      0.932592213      0.339129448       2.27429427E-05  0.289459080       2.84161419E-04
  0.989898980      0.300000012      0.951224148      0.932648897      0.339145988       1.86762754E-05  0.289470971       2.81298533E-04
  0.979797959      0.300000012      0.951351225      0.932816327      0.339110792      -1.04342826E-05  0.289434284       2.73751095E-04
  0.969696999      0.300000012      0.951485217      0.932993352      0.339115918      -3.74725787E-05  0.289431572       2.66356394E-04
  0.959595978      0.300000012      0.951625288      0.933178365      0.339159161      -6.39590144E-05  0.289461106       2.58611515E-04
  0.949494958      0.300000012      0.951769114      0.933368921      0.339240968      -9.04971093E-05  0.289523244       2.51144171E-04
  0.939393938      0.300000012      0.951914847      0.933562100      0.339362353      -1.17503623E-04  0.289619058       2.43753195E-04
  0.929292917      0.300000012      0.952060521      0.933755457      0.339525253      -1.45231737E-04  0.289750218       2.36637890E-04
  0.919191897      0.300000012      0.952203929      0.933945894      0.339731872      -1.73735723E-04  0.289918870       2.29682773E-04
  0.909090936      0.300000012      0.952342570      0.934130251      0.339983910      -2.03062242E-04  0.290126443       2.23217532E-04
  0.898989916      0.300000012      0.952474892      0.934305966      0.340283304      -2.33248313E-04  0.290374815       2.16804445E-04
  0.888888896      0.300000012      0.952599049      0.934470713      0.340631098      -2.64260074E-04  0.290664911       2.10672617E-04
  0.878787875      0.300000012      0.952714205      0.934623182      0.341027707      -2.96044105E-04  0.290997237       2.04619020E-04
  0.868686855      0.300000012      0.952819765      0.934763014      0.341472596      -3.28336813E-04  0.291371197       1.99049711E-04
  0.858585835      0.300000012      0.952915847      0.934890091      0.341964364      -3.61033133E-04  0.291785717       1.93838030E-04
  0.848484874      0.300000012      0.953003943      0.935005963      0.342500359      -3.94011789E-04  0.292238504       1.88320875E-04
  0.838383853      0.300000012      0.953085899      0.935113728      0.343076527      -4.26987594E-04  0.292725891       1.83215365E-04
  0.828282833      0.300000012      0.953164399      0.935216844      0.343688160      -4.59844392E-04  0.293243676       1.78147107E-04
  0.818181813      0.300000012      0.953243256      0.935320437      0.344329238      -4.92400548E-04  0.293786615       1.73131004E-04
  0.808080792      0.300000012      0.953326464      0.935430467      0.344993114      -5.24561037E-04  0.294348598       1.68517232E-04
  0.797979772      0.300000012      0.953419030      0.935553193      0.345672637      -5.56152314E-04  0.294923395       1.63836405E-04
  0.787878811      0.300000012      0.953525841      0.935695708      0.346360505      -5.87227580E-04  0.295504361       1.59285963E-04
  0.777777791      0.300000012      0.953651845      0.935865164      0.347049743      -6.17672224E-04  0.296085179       1.55389309E-04
  0.767676771      0.300000012      0.953802168      0.936067879      0.347733587      -6.47603010E-04  0.296659887       1.51323155E-04
  0.757575750      0.300000012      0.953981221      0.936310410      0.348406583      -6.77045959E-04  0.297223508       1.47599727E-04
  0.747474730      0.300000012      0.954192579      0.936597645      0.349064380      -7.06099905E-04  0.297772020       1.44189224E-04
  0.737373710      0.300000012      0.954439163      0.936933279      0.349703640      -7.34688598E-04  0.298302501       1.40713528E-04
  0.727272749      0.300000012      0.954722464      0.937319875      0.350322694      -7.62867567E-04  0.298813313       1.37800351E-04
  0.717171729      0.300000012      0.955043137      0.937758088      0.350921154      -7.90501421E-04  0.299304128       1.35008246E-04
  0.707070708      0.300000012      0.955400467      0.938247025      0.351499796      -8.17384280E-04  0.299775660       1.32579356E-04
  0.696969688      0.300000012      0.955792844      0.938784182      0.352060169      -8.43110960E-04  0.300229341       1.30074099E-04
  0.686868668      0.300000012      0.956216812      0.939365029      0.352604419      -8.67160852E-04  0.300667197       1.27745792E-04
  0.676767647      0.300000012      0.956668556      0.939984441      0.353134423      -8.88905372E-04  0.301091075       1.25674531E-04
  0.666666687      0.300000012      0.957143128      0.940635324      0.353651702      -9.07527923E-04  0.301502526       1.23508275E-04
  0.656565666      0.300000012      0.957635224      0.941310525      0.354157060      -9.22337407E-04  0.301902652       1.21504068E-04
  0.646464646      0.300000012      0.958138764      0.942001879      0.354650557      -9.32434807E-04  0.302291870       1.19745731E-04
  0.636363626      0.300000012      0.958647788      0.942700803      0.355130970      -9.37230710E-04  0.302669495       1.17819756E-04
  0.626262605      0.300000012      0.959156215      0.943399072      0.355596304      -9.36133380E-04  0.303034246       1.15985051E-04
  0.616161644      0.300000012      0.959658146      0.944088697      0.356044263      -9.28985246E-04  0.303384453       1.14239752E-04
  0.606060624      0.300000012      0.960148335      0.944762349      0.356472135      -9.15130484E-04  0.303718239       1.12624839E-04
  0.595959604      0.300000012      0.960622132      0.945413530      0.356876701      -8.94586381E-04  0.304033130       1.10996887E-04
  0.585858583      0.300000012      0.961075008      0.946035922      0.357255042      -8.67723837E-04  0.304326981       1.09218061E-04
  0.575757563      0.300000012      0.961503685      0.946624815      0.357604921      -8.35174404E-04  0.304598093       1.07223168E-04
  0.565656543      0.300000012      0.961904824      0.947176278      0.357925653      -7.97656539E-04  0.304846019       1.05639920E-04
  0.555555582      0.300000012      0.962275803      0.947686017      0.358217239      -7.56198831E-04  0.305071056       1.03801489E-04
  0.545454562      0.300000012      0.962613881      0.948150277      0.358480662      -7.11682602E-04  0.305274189       1.01828948E-04
  0.535353541      0.300000012      0.962917030      0.948566496      0.358716190      -6.65035157E-04  0.305455714       9.98545438E-05
  0.525252521      0.300000012      0.963182926      0.948931754      0.358923435      -6.17628742E-04  0.305615485       9.83271748E-05
  0.515151501      0.300000012      0.963410139      0.949243188      0.359100759      -5.71015757E-04  0.305752277       9.62335616E-05
  0.505050480      0.300000012      0.963597000      0.949498892      0.359246254      -5.26482880E-04  0.305864602       9.40170139E-05
  0.494949490      0.300000012      0.963743269      0.949698508      0.359358132      -4.83979791E-04  0.305950820       9.17371362E-05
  0.484848499      0.300000012      0.963850200      0.949843526      0.359434187      -4.42688324E-04  0.306009144       8.90903175E-05
  0.474747479      0.300000012      0.963919461      0.949936628      0.359471411      -4.02582460E-04  0.306036830       8.65496695E-05
  0.464646459      0.300000012      0.963953733      0.949981153      0.359468162      -3.64215666E-04  0.306032300       8.36364925E-05
  0.454545468      0.300000012      0.963956594      0.949982703      0.359424770      -3.27753485E-04  0.305995524       8.11200589E-05
  0.444444448      0.300000012      0.963933289      0.949947596      0.359342933      -2.93109217E-04  0.305927783       7.80373812E-05
  0.434343427      0.300000012      0.963889122      0.949883878      0.359225333      -2.60473724E-04  0.305830896       7.50627369E-05
  0.424242437      0.300000012      0.963829815      0.949799180      0.359075159      -2.30454069E-04  0.305707246       7.20322132E-05
  0.414141417      0.300000012      0.963760853      0.949701130      0.358895510      -2.03303818E-04  0.305559129       6.89551234E-05
  0.404040396      0.300000012      0.963687897      0.949598074      0.358689010      -1.79274590E-04  0.305388302       6.64647669E-05
  0.393939406      0.300000012      0.963616610      0.949496984      0.358457744      -1.58286944E-04  0.305196345       6.35702163E-05
  0.383838385      0.300000012      0.963551998      0.949405253      0.358202904      -1.40110249E-04  0.304983884       6.08041883E-05
  0.373737365      0.300000012      0.963498533      0.949328959      0.357925594      -1.24539409E-04  0.304751575       5.81443310E-05
  0.363636374      0.300000012      0.963460147      0.949273348      0.357626975      -1.11294328E-04  0.304500163       5.53224236E-05
  0.353535354      0.300000012      0.963439167      0.949241936      0.357308686      -1.00005134E-04  0.304230869       5.27203083E-05
  0.343434334      0.300000012      0.963437319      0.949236512      0.356972843      -9.06767891E-05  0.303945482       4.96692955E-05
  0.333333343      0.300000012      0.963454187      0.949256957      0.356622607      -8.30720746E-05  0.303646654       4.67281789E-05
  0.323232323      0.300000012      0.963488400      0.949301302      0.356262803      -7.72207350E-05  0.303338617       4.37106937E-05
  0.313131303      0.300000012      0.963537395      0.949365735      0.355899334      -7.30789470E-05  0.303026557       4.04454768E-05
  0.303030312      0.300000012      0.963597059      0.949444711      0.355538964      -7.03644982E-05  0.302716494       3.68990004E-05
  0.292929292      0.300000012      0.963662148      0.949531317      0.355189204      -6.90142697E-05  0.302415103       3.35276127E-05
  0.282828271      0.300000012      0.963726699      0.949617445      0.354857892      -6.86877465E-05  0.302129418       3.04430723E-05
  0.272727281      0.300000012      0.963784397      0.949693978      0.354553044      -6.91125533E-05  0.301866740       2.72560865E-05
  0.262626261      0.300000012      0.963828087      0.949751914      0.354281723      -6.98052972E-05  0.301633388       2.47862190E-05
  0.252525240      0.300000012      0.963851035      0.949781239      0.354050487      -7.04650229E-05  0.301435471       2.23442912E-05
  0.242424250      0.300000012      0.963846505      0.949773073      0.353864729      -7.07347863E-05  0.301277906       2.02786177E-05
  0.232323229      0.300000012      0.963808715      0.949718773      0.353728890      -7.04011763E-05  0.301164955       1.79950148E-05
  0.222222224      0.300000012      0.963731945      0.949611306      0.353646219      -6.94129849E-05  0.301099598       1.64303929E-05
  0.212121218      0.300000012      0.963612020      0.949444234      0.353619486      -6.78464567E-05  0.301084608       1.46571547E-05
  0.202020198      0.300000012      0.963445246      0.949212968      0.353650510      -6.58603749E-05  0.301121622       1.33477151E-05
  0.191919193      0.300000012      0.963229716      0.948914647      0.353740573      -6.38271449E-05  0.301211983       1.22785568E-05
  0.181818187      0.300000012      0.962964535      0.948548079      0.353890687      -6.19701896E-05  0.301356524       1.13900751E-05
  0.171717167      0.300000012      0.962649882      0.948113680      0.354100853      -6.05449532E-05  0.301555276       1.08573586E-05
  0.161616161      0.300000012      0.962287724      0.947613776      0.354370236      -5.96493046E-05  0.301807493       1.02408230E-05
  0.151515156      0.300000012      0.961880684      0.947052240      0.354696631      -5.91563221E-05  0.302111119       9.79937613E-06
  0.141414136      0.300000012      0.961432517      0.946434259      0.355076104      -5.87490722E-05  0.302462548       9.49576497E-06
  0.131313130      0.300000012      0.960948169      0.945766091      0.355502427      -5.78849140E-05  0.302856326       8.74698162E-06
  0.121212125      0.300000012      0.960433006      0.945055902      0.355966985      -5.59859654E-05  0.303284705       8.28504562E-06
  0.111111112      0.300000012      0.959893167      0.944311738      0.356459051      -5.26122676E-05  0.303738177       7.62008131E-06
  0.101010099      0.300000012      0.959335148      0.943542600      0.356966525      -4.74366461E-05  0.304206103       6.94394112E-06
   9.09090936E-02  0.300000012      0.958765924      0.942758143      0.357476443      -4.06850631E-05  0.304676920       6.16535544E-06
   8.08080807E-02  0.300000012      0.958192170      0.941967249      0.357976794      -3.28838469E-05  0.305140108       4.92669642E-06
   7.07070678E-02  0.300000012      0.957620859      0.941179693      0.358457208      -2.49195728E-05  0.305586278       3.48500907E-06
   6.06060624E-02  0.300000012      0.957058012      0.940404534      0.358909488      -1.79211474E-05  0.306007951       2.65985727E-06
   5.05050495E-02  0.300000012      0.956510544      0.939650595      0.359327763      -1.28044530E-05  0.306399763       1.65961683E-06
   4.04040404E-02  0.300000012      0.955984414      0.938926458      0.359708279      -1.02865533E-05  0.306758106       9.79751348E-07
   3.03030312E-02  0.300000012      0.955485582      0.938240170      0.360048920      -1.10286110E-05  0.307080746       5.62518835E-07
   2.02020202E-02  0.300000012      0.955019772      0.937599480      0.360348523      -1.49933076E-05  0.307366312       1.35973096E-07
   1.01010101E-02  0.300000012      0.954592705      0.937012315      0.360604942      -2.10629460E-05  0.307612538      -1.37835741E-07
   0.00000000      0.289655179      0.954280436      0.936583340      0.360800028       3.42466483E-05  0.307799101      -1.49011612E-08
   0.00000000      0.279310346      0.954273760      0.936574101      0.360805929       8.95275807E-05  0.307804585      -6.33299351E-08
   0.00000000      0.268965513      0.954277098      0.936578691      0.360757589       1.38550589E-04  0.307763159      -6.89178705E-08
   0.00000000      0.258620679      0.954289138      0.936595380      0.360661268       1.82500225E-04  0.307680190       1.17346644E-07
   0.00000000      0.248275861      0.954309046      0.936622679      0.360522211       2.21154012E-04  0.307560295       2.04890966E-08
   0.00000000      0.237931028      0.954335511      0.936659098      0.360345751       2.53970211E-04  0.307408065       1.11758709E-07
   0.00000000      0.227586210      0.954367399      0.936702847      0.360137612       2.80748995E-04  0.307228476       4.65661287E-08
   0.00000000      0.217241377      0.954403460      0.936752558      0.359904110       3.01166438E-04  0.307026953       1.62050128E-07
   0.00000000      0.206896558      0.954442799      0.936806500      0.359651595       3.15276091E-04  0.306809038       8.19563866E-08
   0.00000000      0.196551725      0.954483986      0.936863184      0.359386265       3.22898559E-04  0.306580037       1.95577741E-07
   0.00000000      0.186206892      0.954525948      0.936920702      0.359114707       3.24284483E-04  0.306345701       3.72529030E-08
   0.00000000      0.175862074      0.954567254      0.936977506      0.358843178       3.19747371E-04  0.306111425       1.86264515E-08
   0.00000000      0.165517241      0.954607069      0.937032163      0.358577251       3.09474621E-04  0.305882007      -2.23517418E-08
   0.00000000      0.155172408      0.954644144      0.937083066      0.358322620       2.93848891E-04  0.305662423      -7.26431608E-08
   0.00000000      0.144827589      0.954677582      0.937129080      0.358084261       2.73294339E-04  0.305456966       5.58793545E-09
   0.00000000      0.134482756      0.954706371      0.937168717      0.357866853       2.48254102E-04  0.305269599       8.94069672E-08
   0.00000000      0.124137931      0.954729974      0.937201262      0.357674420       2.19031048E-04  0.305103928       2.27242708E-07
   0.00000000      0.113793105      0.954747617      0.937225401      0.357510865       1.86061181E-04  0.304963291       4.09781933E-08
   0.00000000      0.103448279      0.954758465      0.937240362      0.357379645       1.49422922E-04  0.304850638       1.13621354E-07
   0.00000000       9.31034461E-02  0.954761803      0.937245131      0.357284218       1.09460627E-04  0.304768950       2.88709998E-07
   0.00000000       8.27586204E-02  0.954757154      0.937238514      0.357227743       6.63606043E-05  0.304721147       5.21540642E-08
   0.00000000       7.24137947E-02  0.954743564      0.937219918      0.357213140       2.04723383E-05  0.304709524       1.69500709E-07
   0.00000000       6.20689653E-02  0.954720497      0.937188447      0.357243448      -2.76630508E-05  0.304736793       4.26545739E-07
   0.00000000       5.17241396E-02  0.954687536      0.937143087      0.357321858      -7.73067732E-05  0.304805815       3.20374966E-07
   0.00000000       4.13793102E-02  0.954643667      0.937083006      0.357451677      -1.26150713E-04  0.304919332       5.45755029E-07
   0.00000000       3.10344826E-02  0.954588711      0.937007368      0.357636303      -1.69287014E-04  0.305080384       4.45172191E-07
   0.00000000       2.06896551E-02  0.954522789      0.936916769      0.357879639      -1.96117137E-04  0.305292189       4.39584255E-07
   0.00000000       1.03448275E-02  0.954446793      0.936812460      0.358186036      -1.82093820E-04  0.305558413       5.97909093E-07
   1.01942774E-02  -1.06002917E-05  0.954045117      0.936260939      0.358545214      -3.68875510E-04  0.305890620       9.77888703E-07
   2.03885511E-02  -4.05888240E-05  0.952967823      0.934781849      0.359168202      -9.39838006E-04  0.306492120       1.71922147E-06
   3.05827484E-02  -8.74972393E-05  0.951982796      0.933430135      0.359564334      -1.48197729E-03  0.306895077       2.46241689E-06
   4.07768898E-02  -1.49138228E-04  0.951075256      0.932184994      0.359784186      -1.96891441E-03  0.307143241       2.94111669E-06
   5.09709269E-02  -2.23550553E-04  0.950239837      0.931038976      0.359856308      -2.39902944E-03  0.307260990       3.07150185E-06
   6.11648858E-02  -3.08956922E-04  0.949473917      0.929988623      0.359798461      -2.77411216E-03  0.307263434       3.21492553E-06
   7.13587478E-02  -4.03728453E-04  0.948774755      0.929030359      0.359622866      -3.09610483E-03  0.307160914       3.52226198E-06
   8.15525427E-02  -5.06357115E-04  0.948139668      0.928160131      0.359338313      -3.36682051E-03  0.306961060       3.87616456E-06
   9.17462707E-02  -6.15430705E-04  0.947565258      0.927373171      0.358951271      -3.58773139E-03  0.306669414       4.02890146E-06
  0.101939946      -7.29613879E-04  0.947046340      0.926662564      0.358467221      -3.76009149E-03  0.306290954       4.34927642E-06
  0.112133577      -8.47629446E-04  0.946577489      0.926020682      0.357891172      -3.88504588E-03  0.305830151       4.66592610E-06
  0.122327171      -9.68243345E-04  0.946152508      0.925439000      0.357229024      -3.96381505E-03  0.305292487       5.03286719E-06
  0.132520750      -1.09024998E-03  0.945764124      0.924907804      0.356487483      -3.99737200E-03  0.304684073       5.69410622E-06
  0.142714337      -1.21245917E-03  0.945404768      0.924417138      0.355674654      -3.98665061E-03  0.304012269       7.09295273E-06
  0.152907923      -1.33368257E-03  0.945067585      0.923956931      0.354799539      -3.93210864E-03  0.303285271       8.52346420E-06
  0.163101539      -1.45272142E-03  0.944745481      0.923517525      0.353871644      -3.83404875E-03  0.302511632       1.00694597E-05
  0.173295200      -1.56835280E-03  0.944432259      0.923090577      0.352900207      -3.69207095E-03  0.301699698       1.19134784E-05
  0.183488905      -1.67931605E-03  0.944122314      0.922668099      0.351893812      -3.50554287E-03  0.300857306       1.36792660E-05
  0.193682685      -1.78429752E-03  0.943811476      0.922244489      0.350859731      -3.27314273E-03  0.299990863       1.54823065E-05
  0.203876525      -1.88191328E-03  0.943497181      0.921815634      0.349802881      -2.99284374E-03  0.299104869       1.66296959E-05
  0.214070454      -1.97069068E-03  0.943177879      0.921380103      0.348726213      -2.66203820E-03  0.298202038       1.79223716E-05
  0.224264458      -2.04904471E-03  0.942853987      0.920938730      0.347629398      -2.27708532E-03  0.297282040       1.95913017E-05
  0.234458551      -2.11525219E-03  0.942528188      0.920494616      0.346508801      -1.83347415E-03  0.296341777       2.10702419E-05
  0.244652733      -2.16741930E-03  0.942204416      0.920053542      0.345357388      -1.32536690E-03  0.295375139       2.28285789E-05
  0.254846990      -2.20344099E-03  0.941888511      0.919623196      0.344163626      -7.45444384E-04  0.294372141       2.44341791E-05
  0.265041292      -2.22095218E-03  0.941588104      0.919214189      0.342911929      -8.47281699E-05  0.293319374       2.62148678E-05
  0.275235593      -2.21726228E-03  0.941312075      0.918838322      0.341582477       6.68070628E-04  0.292199641       2.76491046E-05
  0.285429865      -2.18927371E-03  0.941070080      0.918509305      0.340151399       1.52640918E-03  0.290992528       2.95005739E-05
  0.295624018      -2.13337177E-03  0.940873325      0.918242216      0.338590622       2.50776159E-03  0.289674193       3.14339995E-05
  0.305817962      -2.04527588E-03  0.940733910      0.918053687      0.336867839       3.63383675E-03  0.288217396       3.35350633E-05
  0.316011488      -1.91983546E-03  0.940664470      0.917960942      0.334945738       4.93320636E-03  0.286591172       3.58112156E-05
  0.326204360      -1.75073801E-03  0.940678835      0.917982817      0.332781315       6.44352566E-03  0.284760475       3.82512808E-05
  0.336396307      -1.53008103E-03  0.940791607      0.918139219      0.330323040       8.21633544E-03  0.282684237       4.08180058E-05
  0.346586645      -1.24772848E-03  0.941017807      0.918451726      0.327508628       1.03244856E-02  0.280314237       4.45730984E-05
  0.356774658      -8.90274358E-04  0.941374779      0.918944001      0.324259609       1.28745669E-02  0.277592480       4.94383276E-05
  0.366958946      -4.39326104E-04  0.941883266      0.919644773      0.320474446       1.60503741E-02  0.274449140       5.57303429E-05
  0.377137065       1.33766516E-04  0.942583740      0.920611680      0.316066176       2.06832904E-02  0.270871729       6.57290220E-05
  0.387299746       9.32033930E-04  0.943353117      0.921676099      0.311688185       2.76854895E-02  0.267553598       7.90618360E-05
  0.397434235       2.03104783E-03  0.943933964      0.922486901      0.308076560       3.66310515E-02  0.265236825       9.65930521E-05
  0.407523632       3.48527054E-03  0.944225967      0.922909379      0.305532336       4.73923944E-02  0.264310479       1.21437013E-04
  0.417543113       5.36030158E-03  0.944117486      0.922797918      0.304482639       6.04236014E-02  0.265366226       1.61550939E-04
  0.427456856       7.73026003E-03  0.943350852      0.921814501      0.305874079       7.63574019E-02  0.269538552       2.32506543E-04
  0.437217921       1.06651187E-02  0.941440642      0.919325113      0.311495692       9.57613215E-02  0.278714627       3.66136432E-04
  0.446780443       1.41935814E-02  0.937515974      0.914190352      0.324499875      0.118305534      0.295611024       6.13618642E-04
  0.456144422       1.82216074E-02  0.930262744      0.904671133      0.349493951      0.140454158      0.322807729       1.01967901E-03
  0.465438336       2.24102195E-02  0.918614328      0.889336348      0.389613658      0.152157024      0.359275192       1.56467035E-03
  0.474928796       2.61229333E-02  0.904129326      0.870263159      0.438131779      0.139205098      0.396017402       2.13636458E-03
  0.484786808       2.86871437E-02  0.891940534      0.854326487      0.476936698       9.79149342E-02  0.420452952       2.65632197E-03
  0.494905144       2.98680626E-02  0.886096418      0.846974432      0.493275970       4.39622663E-02  0.428103983       3.21651250E-03
  0.505094886       2.98680626E-02  0.885453701      0.846689761      0.490146816      -8.49208236E-03  0.423689902       3.89625132E-03
  0.515213192       2.86871418E-02  0.886933267      0.849575877      0.472110987      -6.12897575E-02  0.411105871       4.96170670E-03
  0.525071204       2.61229314E-02  0.890571356      0.855744779      0.438611507     -0.111067027      0.390098304       6.46574795E-03
  0.534561634       2.24102195E-02  0.897990644      0.866985202      0.395151824     -0.141185626      0.360926718       7.90046901E-03
  0.543855608       1.82216056E-02  0.908424914      0.881969988      0.352939993     -0.142673969      0.326528788       8.86300579E-03
  0.553219557       1.41935805E-02  0.918463469      0.896137118      0.319833279     -0.124366947      0.293615818       9.41254199E-03
  0.562782109       1.06651178E-02  0.925633967      0.906215012      0.297676265     -0.100718074      0.268423289       9.70825739E-03
  0.572543144       7.73025956E-03  0.929949999      0.912266850      0.284418046      -7.95149431E-02  0.252001762       9.85154882E-03
  0.582456887       5.36030112E-03  0.932378948      0.915642977      0.277086318      -6.23847283E-02  0.242226481       9.89356451E-03
  0.592476368       3.48527008E-03  0.933734000      0.917469919      0.273392171      -4.87687513E-02  0.236777186       9.85366106E-03