 title = "grid"
                                   variables = "x","y","rho","P","u","v","M","S"
 zone n=        3000  e =        5742  et=quadrilateral, f=fepoint
   0.00000000       0.00000000      0.954835773      0.937346399      0.358226091      -3.45217850E-04  0.305567861      -8.38190317E-08
   1.00000000       0.00000000      0.945026398      0.931955278      0.311314523       6.14991819E-04  0.264948040       8.68891925E-03
   1.00000000      0.300000012      0.951949894      0.933573365      0.354074925       3.21756059E-04  0.302178919       2.04294920E-04
   0.00000000      0.300000012      0.953894496      0.936053097      0.361673623       3.16148253E-05  0.308569342      -1.30385160E-08
   1.00000000       1.03448275E-02  0.946328223      0.932042658      0.317143977       1.08362420E-03  0.270083457       6.85545616E-03
   1.00000000       2.06896551E-02  0.947815001      0.932094693      0.324427664       1.56425487E-03  0.276497155       4.71346825E-03
   1.00000000       3.10344826E-02  0.948821843      0.932142794      0.330066413       1.93346676E-03  0.281446517       3.27861868E-03
   1.00000000       4.13793102E-02  0.949514091      0.932190180      0.334690899       2.22587283E-03  0.285488039       2.30842270E-03
   1.00000000       5.17241396E-02  0.949994981      0.932239652      0.338520914       2.46164761E-03  0.288821697       1.65263005E-03
   1.00000000       6.20689653E-02  0.950333595      0.932292879      0.341668248       2.65310705E-03  0.291551709       1.21084414E-03
   1.00000000       7.24137947E-02  0.950576723      0.932350457      0.344224811       2.80758273E-03  0.293762684       9.14428383E-04
   1.00000000       8.27586204E-02  0.950757325      0.932412744      0.346276641       2.92950240E-03  0.295532644       7.15328380E-04
   1.00000000       9.31034461E-02  0.950897634      0.932480097      0.347904533       3.02136852E-03  0.296933740       5.80921769E-04
   1.00000000      0.103448279      0.951011837      0.932552159      0.349183083       3.08470451E-03  0.298031747       4.90104780E-04
   1.00000000      0.113793105      0.951110184      0.932628930      0.350180060       3.12029407E-03  0.298886031       4.27646562E-04
   1.00000000      0.124137931      0.951199234      0.932709813      0.350954860       3.12867528E-03  0.299548388       3.83256003E-04
   1.00000000      0.134482756      0.951282084      0.932793915      0.351558238       3.11017642E-03  0.300062746       3.51531431E-04
   1.00000000      0.144827589      0.951361597      0.932880700      0.352031112       3.06515465E-03  0.300464541       3.27507034E-04
   1.00000000      0.155172408      0.951438904      0.932969391      0.352406800       2.99403840E-03  0.300782621       3.08880582E-04
   1.00000000      0.165517241      0.951514482      0.933058858      0.352710783       2.89780879E-03  0.301038891       2.93500721E-04
   1.00000000      0.175862074      0.951588154      0.933148026      0.352961749       2.77741370E-03  0.301249444       2.80722976E-04
   1.00000000      0.186206892      0.951659739      0.933235765      0.353173465       2.63389084E-03  0.301426411       2.69409269E-04
   1.00000000      0.196551725      0.951728523      0.933321118      0.353354692       2.46885046E-03  0.301577181       2.59630382E-04
   1.00000000      0.206896558      0.951794207      0.933402598      0.353511214       2.28414848E-03  0.301706910       2.50324607E-04
   1.00000000      0.217241377      0.951855600      0.933478951      0.353645951       2.08178954E-03  0.301818252       2.41857022E-04
   1.00000000      0.227586210      0.951912165      0.933549047      0.353759646       1.86427101E-03  0.301911831       2.33773142E-04
   1.00000000      0.237931028      0.951962769      0.933611691      0.353852093       1.63439417E-03  0.301987678       2.26417556E-04
   1.00000000      0.248275861      0.952006817      0.933665395      0.353922486       1.39531028E-03  0.302045196       2.19151378E-04
   1.00000000      0.258620679      0.952042758      0.933709562      0.353969216       1.15097244E-03  0.302082866       2.13589519E-04
   1.00000000      0.268965513      0.952070236      0.933742940      0.353991419       9.05878376E-04  0.302100152       2.08986923E-04
   1.00000000      0.279310346      0.952089012      0.933765352      0.353991061       6.65442436E-04  0.302098751       2.05343589E-04
   1.00000000      0.289655179      0.952097952      0.933776021      0.353979707       4.35926748E-04  0.302088469       2.03667209E-04
  0.989898980      0.300000012      0.952631533      0.934506834      0.353703856       3.62355931E-04  0.301819474       2.01595947E-04
  0.979797959      0.300000012      0.954220116      0.936684072      0.352896452       3.62174702E-04  0.301030964       1.96032226E-04
  0.969696999      0.300000012      0.955785692      0.938831151      0.352102309       3.60696402E-04  0.300255924       1.90516934E-04
  0.959595978      0.300000012      0.957317889      0.940933824      0.351335049       3.58684774E-04  0.299506485       1.85169280E-04
  0.949494958      0.300000012      0.958807468      0.942979634      0.350605518       3.56840319E-04  0.298792392       1.80428848E-04
  0.939393938      0.300000012      0.960246563      0.944957793      0.349921674       3.55480879E-04  0.298120767       1.76252797E-04
  0.929292917      0.300000012      0.961629093      0.946858823      0.349289387       3.54881049E-04  0.297497153       1.71760097E-04
  0.919191897      0.300000012      0.962949932      0.948676050      0.348712623       3.55088501E-04  0.296924978       1.67503953E-04
  0.909090936      0.300000012      0.964205325      0.950404406      0.348193705       3.56274279E-04  0.296406448       1.63692981E-04
  0.898989916      0.300000012      0.965393364      0.952040792      0.347733557       3.58227000E-04  0.295942396       1.60122290E-04
  0.888888896      0.300000012      0.966513097      0.953583539      0.347332060       3.60794453E-04  0.295532703       1.56331807E-04
  0.878787875      0.300000012      0.967564344      0.955032945      0.346988410       3.63947445E-04  0.295176625       1.53241679E-04
  0.868686855      0.300000012      0.968548059      0.956389725      0.346701115       3.67472909E-04  0.294872701       1.50255859E-04
  0.858585835      0.300000012      0.969465911      0.957656503      0.346468359       3.71260132E-04  0.294619322       1.47847459E-04
  0.848484874      0.300000012      0.970320046      0.958835661      0.346288413       3.75032949E-04  0.294414788       1.45420432E-04
  0.838383853      0.300000012      0.971112728      0.959930182      0.346159548       3.78684665E-04  0.294257522       1.43071637E-04
  0.828282833      0.300000012      0.971845865      0.960942805      0.346080542       3.82080179E-04  0.294146270       1.40918419E-04
  0.818181813      0.300000012      0.972521961      0.961876810      0.346050173       3.85101419E-04  0.294079870       1.38787553E-04
  0.808080792      0.300000012      0.973142445      0.962734461      0.346067846       3.87615088E-04  0.294057637       1.37103721E-04
  0.797979772      0.300000012      0.973709106      0.963517606      0.346133292       3.89677676E-04  0.294079244       1.35206617E-04
  0.787878811      0.300000012      0.974222958      0.964227974      0.346246898       3.91197274E-04  0.294144988       1.33591704E-04
  0.777777791      0.300000012      0.974684715      0.964866281      0.346408993       3.92230198E-04  0.294255078       1.31996349E-04
  0.767676771      0.300000012      0.975094497      0.965432882      0.346620679       3.92765971E-04  0.294410348       1.30566768E-04
  0.757575750      0.300000012      0.975452423      0.965927660      0.346883237       3.92774993E-04  0.294611931       1.29148364E-04
  0.747474730      0.300000012      0.975758314      0.966350377      0.347198159       3.92143353E-04  0.294861108       1.27720647E-04
  0.737373710      0.300000012      0.976011574      0.966700196      0.347567081       3.90958012E-04  0.295159340       1.26263127E-04
  0.727272749      0.300000012      0.976212025      0.966976464      0.347992241       3.89158900E-04  0.295508474       1.24519691E-04
  0.717171729      0.300000012      0.976358712      0.967177987      0.348475695       3.86659522E-04  0.295910388       1.22543424E-04
  0.707070708      0.300000012      0.976451099      0.967304170      0.349019885       3.83360108E-04  0.296367198       1.20564364E-04
  0.696969688      0.300000012      0.976488531      0.967354357      0.349626929       3.79422447E-04  0.296880662       1.18764117E-04
  0.686868668      0.300000012      0.976470768      0.967327893      0.350298285       3.74991476E-04  0.297452092       1.16904266E-04
  0.676767647      0.300000012      0.976398051      0.967224717      0.351035088       3.70236521E-04  0.298082530       1.14504248E-04
  0.666666687      0.300000012      0.976270378      0.967045248      0.351837516       3.65646323E-04  0.298772067       1.11987814E-04
  0.656565666      0.300000012      0.976088047      0.966790020      0.352703571       3.61884362E-04  0.299519092       1.09485351E-04
  0.646464646      0.300000012      0.975851834      0.966459990      0.353629768       3.59630270E-04  0.300320566       1.06952153E-04
  0.636363626      0.300000012      0.975563526      0.966057539      0.354609907       3.59845842E-04  0.301171124       1.04104169E-04
  0.626262605      0.300000012      0.975224793      0.965585172      0.355635226       3.63464729E-04  0.302063376       1.01188198E-04
  0.616161644      0.300000012      0.974837959      0.965046227      0.356693983       3.71323753E-04  0.302987128       9.83709469E-05
  0.606060624      0.300000012      0.974406719      0.964445412      0.357772231       3.84004146E-04  0.303930432       9.49995592E-05
  0.595959604      0.300000012      0.973934650      0.963788271      0.358854085       4.01808735E-04  0.304879516       9.18386504E-05
  0.585858583      0.300000012      0.973426342      0.963081121      0.359922141       4.24674305E-04  0.305819333       8.87466595E-05
  0.575757563      0.300000012      0.972886860      0.962330937      0.360958785       4.52087377E-04  0.306734681       8.55578110E-05
  0.565656543      0.300000012      0.972321689      0.961545706      0.361947179       4.82918869E-04  0.307610810       8.28607008E-05
  0.555555582      0.300000012      0.971736610      0.960732877      0.362872392       5.15552063E-04  0.308434784       7.97715038E-05
  0.545454562      0.300000012      0.971136570      0.959899724      0.363723129       5.47985197E-04  0.309196562       7.69980252E-05
  0.535353541      0.300000012      0.970526218      0.959052503      0.364492148       5.78673033E-04  0.309889704       7.41388649E-05
  0.525252521      0.300000012      0.969909608      0.958196938      0.365176797       6.07337221E-04  0.310511738       7.14398921E-05
  0.515151501      0.300000012      0.969291627      0.957339883      0.365775615       6.35788601E-04  0.311060995       6.88284636E-05
  0.505050480      0.300000012      0.968678057      0.956489027      0.366285235       6.66647684E-04  0.311534286       6.62188977E-05
  0.494949490      0.300000012      0.968074977      0.955652773      0.366699845       7.00766162E-04  0.311926275       6.33876771E-05
  0.484848499      0.300000012      0.967487276      0.954837739      0.367015511       7.37011142E-04  0.312233239       6.03366643E-05
  0.474747479      0.300000012      0.966919124      0.954050362      0.367230415       7.75778317E-04  0.312453210       5.77382743E-05
  0.464646459      0.300000012      0.966375589      0.953296959      0.367340267       8.18875793E-04  0.312582344       5.49498945E-05
  0.454545468      0.300000012      0.965860784      0.952583075      0.367338896       8.65541806E-04  0.312615097       5.18187881E-05
  0.444444448      0.300000012      0.965376139      0.951911092      0.367224485       9.11802461E-04  0.312549680       4.88441437E-05
  0.434343427      0.300000012      0.964921176      0.951280057      0.367002398       9.53046954E-04  0.312390685       4.56348062E-05
  0.424242437      0.300000012      0.964493990      0.950687528      0.366684377       9.86343366E-04  0.312148213       4.25204635E-05
  0.414141417      0.300000012      0.964092255      0.950130224      0.366285205       1.01058127E-03  0.311834902       3.94172966E-05
  0.404040396      0.300000012      0.963713169      0.949604332      0.365820676       1.02560048E-03  0.311464459       3.63048166E-05
  0.393939406      0.300000012      0.963353574      0.949105322      0.365306467       1.03185908E-03  0.311050355       3.32165509E-05
  0.383838385      0.300000012      0.963010073      0.948629022      0.364757627       1.02993031E-03  0.310605615       3.04561108E-05
  0.373737365      0.300000012      0.962679863      0.948171258      0.364187807       1.02068461E-03  0.310142040       2.79974192E-05
  0.363636374      0.300000012      0.962360144      0.947728097      0.363609493       1.00496912E-03  0.309670478       2.55387276E-05
  0.353535354      0.300000012      0.962048054      0.947295785      0.363033980       9.83743812E-04  0.309200674       2.33091414E-05
  0.343434334      0.300000012      0.961741447      0.946871221      0.362470329       9.58144898E-04  0.308740556       2.13403255E-05
  0.333333343      0.300000012      0.961438239      0.946451485      0.361926764       9.28820809E-04  0.308297247       1.93361193E-05
  0.323232323      0.300000012      0.961136758      0.946034253      0.361410111       8.96152924E-04  0.307876706       1.75181776E-05
  0.313131303      0.300000012      0.960835040      0.945617259      0.360927105       8.60597298E-04  0.307484686       1.61640346E-05
  0.303030312      0.300000012      0.960532188      0.945198596      0.360483289       8.22585600E-04  0.307126045       1.47204846E-05
  0.292929292      0.300000012      0.960227013      0.944777250      0.360083610       7.82476913E-04  0.306805104       1.37072057E-05
  0.282828271      0.300000012      0.959918678      0.944351792      0.359732062       7.40797259E-04  0.306525320       1.28764659E-05
  0.272727281      0.300000012      0.959607124      0.943921804      0.359431833       6.98002405E-04  0.306289494       1.19060278E-05
  0.262626261      0.300000012      0.959291756      0.943486810      0.359185040       6.54657139E-04  0.306099355       1.11665577E-05
  0.252525240      0.300000012      0.958972752      0.943046987      0.358992666       6.11297786E-04  0.305955768       1.04978681E-05
  0.242424250      0.300000012      0.958650291      0.942602098      0.358854234       5.68589836E-04  0.305858463       9.49390233E-06
  0.232323229      0.300000012      0.958324492      0.942152739      0.358768225       5.26966294E-04  0.305806041       8.50297511E-06
  0.222222224      0.300000012      0.957995892      0.941699564      0.358732134       4.86849865E-04  0.305796355       7.49528408E-06
  0.212121218      0.300000012      0.957665205      0.941243470      0.358742476       4.48556995E-04  0.305826426       6.43730164E-06
  0.202020198      0.300000012      0.957333326      0.940785825      0.358795494       4.12181544E-04  0.305892944       5.34020364E-06
  0.191919193      0.300000012      0.957001388      0.940328240      0.358886808       3.77726450E-04  0.305992156       4.37162817E-06
  0.181818187      0.300000012      0.956670582      0.939872503      0.359012187       3.45158594E-04  0.306120306       3.61539423E-06
  0.171717167      0.300000012      0.956343472      0.939421415      0.359167546       3.14222183E-04  0.306273878       2.30781734E-06
  0.161616161      0.300000012      0.956021488      0.938977957      0.359348983       2.84819573E-04  0.306449294       1.55717134E-06
  0.151515156      0.300000012      0.955707073      0.938545525      0.359552532       2.56677275E-04  0.306643099       1.43237412E-06
  0.141414136      0.300000012      0.955403388      0.938127816      0.359774202       2.29722049E-04  0.306851655       1.21071935E-06
  0.131313130      0.300000012      0.955113709      0.937729299      0.360009879       2.03945921E-04  0.307071328       8.53091478E-07
  0.121212125      0.300000012      0.954841137      0.937354624      0.360255063       1.79515846E-04  0.307297975       8.25151801E-07
  0.111111112      0.300000012      0.954589188      0.937008321      0.360504329       1.56593436E-04  0.307526827       8.04662704E-07
  0.101010099      0.300000012      0.954361498      0.936695218      0.360751450       1.35515351E-04  0.307752371       4.99188900E-07
   9.09090936E-02  0.300000012      0.954161346      0.936420262      0.360989481       1.16718322E-04  0.307968348       6.01634383E-07
   8.08080807E-02  0.300000012      0.953992069      0.936187506      0.361210436       1.00524638E-04  0.308167785       3.81842256E-07
   7.07070678E-02  0.300000012      0.953856170      0.936000764      0.361406177       8.70837466E-05  0.308343589       3.25962901E-07
   6.06060624E-02  0.300000012      0.953756094      0.935863137      0.361568838       7.63455100E-05  0.308488846       2.16066837E-07
   5.05050495E-02  0.300000012      0.953693390      0.935777009      0.361691505       6.79117220E-05  0.308597565       2.06753612E-07
   4.04040404E-02  0.300000012      0.953668892      0.935743451      0.361769587       6.10637653E-05  0.308665752       3.44589353E-07
   3.03030312E-02  0.300000012      0.953682482      0.935762048      0.361801028       5.48988537E-05  0.308691710       2.23517418E-07
   2.02020202E-02  0.300000012      0.953733027      0.935831368      0.361786842       4.84776247E-05  0.308676362       9.87201929E-08
   1.01010101E-02  0.300000012      0.953817546      0.935947537      0.361732036       4.00571807E-05  0.308624089       1.97440386E-07
   0.00000000      0.289655179      0.953904569      0.936066866      0.361648798       4.89266931E-05  0.308547497      -2.60770321E-08
   0.00000000      0.279310346      0.953917980      0.936085463      0.361598134       7.19391828E-05  0.308503389       1.04308128E-07
   0.00000000      0.268965513      0.953940332      0.936116040      0.361516416       9.39065649E-05  0.308432251      -3.35276127E-08
   0.00000000      0.258620679      0.953970909      0.936158001      0.361405075       1.14818780E-04  0.308335304      -1.08033419E-07
   0.00000000      0.248275861      0.954009235      0.936210752      0.361265481       1.34640199E-04  0.308213711       5.58793545E-08
   0.00000000      0.237931028      0.954054832      0.936273515      0.361099005       1.53020272E-04  0.308068722       1.97440386E-07
   0.00000000      0.227586210      0.954107523      0.936345816      0.360907078       1.69898456E-04  0.307901621       9.12696123E-08
   0.00000000      0.217241377      0.954166412      0.936426878      0.360691875       1.84827615E-04  0.307714164       2.40281224E-07
   0.00000000      0.206896558      0.954231203      0.936515749      0.360455304       1.97730464E-04  0.307508230       3.35276127E-08
   0.00000000      0.196551725      0.954300940      0.936611593      0.360199928       2.08156314E-04  0.307285875       7.82310963E-08
   0.00000000      0.186206892      0.954374850      0.936713040      0.359928697       2.15611071E-04  0.307049751      -5.40167093E-08
   0.00000000      0.175862074      0.954451978      0.936819136      0.359645098       2.19861293E-04  0.306802809       1.26659870E-07
   0.00000000      0.165517241      0.954531014      0.936927736      0.359353155       2.20415022E-04  0.306548715       9.31322575E-08
   0.00000000      0.155172408      0.954611123      0.937037587      0.359057397       2.16772838E-04  0.306291312      -2.14204192E-07
   0.00000000      0.144827589      0.954690635      0.937146783      0.358762681       2.08542653E-04  0.306034803      -2.38418579E-07
   0.00000000      0.134482756      0.954767883      0.937253296      0.358474672       1.95416113E-04  0.305784136       1.19209290E-07
   0.00000000      0.124137931      0.954841793      0.937354684      0.358199269       1.76931717E-04  0.305544496      -5.02914190E-08
   0.00000000      0.113793105      0.954910338      0.937449098      0.357943177       1.52682915E-04  0.305321634       1.22934580E-07
   0.00000000      0.103448279      0.954972029      0.937533677      0.357713252       1.22417143E-04  0.305121601      -9.49949026E-08
   0.00000000       9.31034461E-02  0.955024540      0.937605977      0.357516825       8.58256972E-05  0.304950655       8.38190317E-08
   0.00000000       8.27586204E-02  0.955066383      0.937663376      0.357361466       4.29127213E-05  0.304815471      -9.12696123E-08
   0.00000000       7.24137947E-02  0.955095291      0.937703252      0.357255161      -6.37976336E-06  0.304722935       6.51925802E-08
   0.00000000       6.20689653E-02  0.955109596      0.937722802      0.357205510      -6.18615959E-05  0.304679722      -2.98023224E-08
   0.00000000       5.17241396E-02  0.955107212      0.937719285      0.357220620      -1.22933823E-04  0.304692775      -3.14787030E-07
   0.00000000       4.13793102E-02  0.955086172      0.937690675      0.357308149      -1.88146398E-04  0.304768741       7.45058060E-08
   0.00000000       3.10344826E-02  0.955045223      0.937634408      0.357475758      -2.54383020E-04  0.304914385       2.23517418E-08
   0.00000000       2.06896551E-02  0.954982936      0.937548876      0.357730776      -3.14653473E-04  0.305135906       1.37835741E-07
   0.00000000       1.03448275E-02  0.954899251      0.937433779      0.358080059      -3.53504118E-04  0.305439234       3.16649675E-08
   1.01942774E-02  -1.06002917E-05  0.954946816      0.937499285      0.358137876      -5.66977193E-04  0.305485725       2.14204192E-07
   2.03885511E-02  -4.05888240E-05  0.955204010      0.937852979      0.357845753      -1.14327599E-03  0.305221260       3.70666385E-07
   3.05827484E-02  -8.74972393E-05  0.955500782      0.938261151      0.357414007      -1.66844425E-03  0.304835796       6.22123480E-07
   4.07768898E-02  -1.49138228E-04  0.955828726      0.938712418      0.356873214      -2.12838198E-03  0.304355681       1.00769103E-06
   5.09709269E-02  -2.23550553E-04  0.956187010      0.939205408      0.356237411      -2.52478267E-03  0.303792864       1.44168735E-06
   6.11648858E-02  -3.08956922E-04  0.956575871      0.939740241      0.355513871      -2.86129862E-03  0.303153366       1.47148967E-06
   7.13587478E-02  -4.03728453E-04  0.956995308      0.940317273      0.354707301      -3.14158667E-03  0.302441120       1.56275928E-06
   8.15525427E-02  -5.06357115E-04  0.957444906      0.940936387      0.353821546      -3.36915976E-03  0.301659316       2.21282244E-06
   9.17462707E-02  -6.15430705E-04  0.957923651      0.941595614      0.352861136      -3.54683213E-03  0.300811857       2.66917050E-06
  0.101939946      -7.29613879E-04  0.958429277      0.942291856      0.351831377      -3.67706688E-03  0.299903542       3.08267772E-06
  0.112133577      -8.47629446E-04  0.958958209      0.943020582      0.350738466      -3.76159907E-03  0.298939735       3.70852649E-06
  0.122327171      -9.68243345E-04  0.959506333      0.943775952      0.349590123      -3.80215701E-03  0.297927290       4.40888107E-06
  0.132520750      -1.09024998E-03  0.960068226      0.944550335      0.348394454      -3.79969017E-03  0.296873569       4.95649874E-06
  0.142714337      -1.21245917E-03  0.960637569      0.945335507      0.347160608      -3.75477388E-03  0.295786679       5.96791506E-06
  0.152907923      -1.33368257E-03  0.961207688      0.946121812      0.345898598      -3.66786448E-03  0.294675678       6.69620931E-06
  0.163101539      -1.45272142E-03  0.961771309      0.946899056      0.344618499      -3.53878736E-03  0.293549657       7.20843673E-06
  0.173295200      -1.56835280E-03  0.962320566      0.947656691      0.343330622      -3.36694624E-03  0.292417765       7.71880150E-06
  0.183488905      -1.67931605E-03  0.962847173      0.948383570      0.342045069      -3.15136812E-03  0.291289240       8.58865678E-06
  0.193682685      -1.78429752E-03  0.963343441      0.949068367      0.340771049      -2.89058848E-03  0.290172428       8.98353755E-06
  0.203876525      -1.88191328E-03  0.963801622      0.949701071      0.339516729      -2.58240593E-03  0.289074719       9.70251858E-06
  0.214070454      -1.97069068E-03  0.964214802      0.950271845      0.338288456      -2.22400692E-03  0.288001984       1.04494393E-05
  0.224264458      -2.04904471E-03  0.964577019      0.950772524      0.337090254      -1.81164744E-03  0.286958158       1.14142895E-05
  0.234458551      -2.11525219E-03  0.964883268      0.951196015      0.335923225      -1.34084455E-03  0.285944581       1.23288482E-05
  0.244652733      -2.16741930E-03  0.965130508      0.951538026      0.334785312      -8.06041702E-04  0.284959793       1.30999833E-05
  0.254846990      -2.20344099E-03  0.965317070      0.951796770      0.333670557      -2.00217910E-04  0.283998996       1.43703073E-05
  0.265041292      -2.22095218E-03  0.965443790      0.951973259      0.332569122       4.85080440E-04  0.283054113       1.60355121E-05
  0.275235593      -2.21726228E-03  0.965513945      0.952072203      0.331466556       1.26045279E-03  0.282113016       1.82148069E-05
  0.285429865      -2.18927371E-03  0.965533435      0.952101469      0.330343992       2.13904120E-03  0.281160027       2.07293779E-05
  0.295624018      -2.13337177E-03  0.965511262      0.952073395      0.329176933       3.13788280E-03  0.280174464       2.33836472E-05
  0.305817962      -2.04527588E-03  0.965458930      0.952004075      0.327935457       4.27850010E-03  0.279131502       2.64458358E-05
  0.316011488      -1.91983546E-03  0.965390861      0.951912701      0.326582044       5.58970775E-03  0.278000087       2.91261822E-05
  0.326204360      -1.75073801E-03  0.965323865      0.951823175      0.325071365       7.10963365E-03  0.276743174       3.23038548E-05
  0.336396307      -1.53008103E-03  0.965277851      0.951762974      0.323347509       8.89056176E-03  0.275315940       3.57683748E-05
  0.346586645      -1.24772848E-03  0.965275466      0.951763451      0.321340770       1.10064615E-02  0.273663908       3.97171825E-05
  0.356774658      -8.90274358E-04  0.965342343      0.951860726      0.318963498       1.35652935E-02  0.271721095       4.49586660E-05
  0.366958946      -4.39326104E-04  0.965509176      0.952096879      0.316103369       1.67527981E-02  0.269408792       5.10904938E-05
  0.377137065       1.33766516E-04  0.965827763      0.952545404      0.312660396       2.13993583E-02  0.266704708       6.01932406E-05
  0.387299746       9.32033930E-04  0.966187656      0.953053534      0.309262246       2.84232497E-02  0.264278293       7.19167292E-05
  0.397434235       2.03104783E-03  0.966340601      0.953278959      0.306619018       3.74209732E-02  0.262845606       8.67806375E-05
  0.407523632       3.48527054E-03  0.966190159      0.953092635      0.305015743       4.82835658E-02  0.262782395       1.09309331E-04
  0.417543113       5.36030158E-03  0.965626955      0.952351153      0.304861695       6.14799857E-02  0.264667869       1.47355720E-04
  0.427456856       7.73026003E-03  0.964381933      0.950698793      0.307094604       7.76529536E-02  0.269630969       2.16990709E-04
  0.437217921       1.06651187E-02  0.961952925      0.947474420      0.313507259       9.73879024E-02  0.279563546       3.50287184E-04
  0.446780443       1.41935814E-02  0.957456410      0.941512883      0.327238888      0.120346822      0.297161907       5.97830862E-04
  0.456144422       1.82216074E-02  0.949551761      0.931026280      0.352887869      0.142931134      0.324965417       1.00352429E-03
  0.465438336       2.24102195E-02  0.937184811      0.914590418      0.393527001      0.154924899      0.361824691       1.54577941E-03
  0.474928796       2.61229333E-02  0.922061265      0.894507647      0.442209303      0.141905144      0.398506105       2.11925805E-03
  0.484786808       2.86871437E-02  0.909573734      0.878071666      0.480498254      0.100188717      0.422204733       2.66384706E-03
  0.494905144       2.98680626E-02  0.903859377      0.870890677      0.495579451       4.57763039E-02  0.428511769       3.27524543E-03
  0.505094886       2.98680626E-02  0.903598130      0.871183753      0.490878403      -6.92112418E-03  0.422557563       4.01639938E-03
  0.515213192       2.86871418E-02  0.905515015      0.874763250      0.471284240      -5.96306734E-02  0.408479542       5.14998659E-03
  0.525071204       2.61229314E-02  0.909534156      0.881587386      0.436514765     -0.109039396      0.386238277       6.72062486E-03
  0.534561634       2.24102195E-02  0.917219937      0.893350482      0.392268062     -0.138698846      0.356307417       8.19490477E-03
  0.543855608       1.82216056E-02  0.927790165      0.908658922      0.349674791     -0.139883980      0.321632385       9.14408080E-03
  0.553219557       1.41935805E-02  0.937849760      0.922917962      0.316399693     -0.121524870      0.288760483       9.61681083E-03
  0.562782109       1.06651178E-02  0.944961965      0.932888925      0.294155002      -9.80015174E-02  0.263730854       9.78573412E-03
  0.572543144       7.73025956E-03  0.949161351      0.938697577      0.280862689      -7.70055279E-02  0.247500554       9.78513155E-03
  0.582456887       5.36030112E-03  0.951404572      0.941735864      0.273584038      -6.01103492E-02  0.237948135       9.71184205E-03
  0.592476368       3.48527008E-03  0.952466428      0.943129659      0.270112544      -4.67516147E-02  0.232824951       9.62911546E-03