 title = "grid"
                                   variables = "x","y","rho","P","u","v","M","S"
 zone n=        3000  e =        5742  et=quadrilateral, f=fepoint
   0.00000000       0.00000000      0.965268075      0.951715529      0.313857555      -3.50039278E-04  0.267140150       1.04308128E-07
   1.00000000       0.00000000      0.945491791      0.933420479      0.491243303      -1.53465231E-03  0.417854398       9.57055949E-03
   1.00000000      0.300000012      0.929911315      0.932420313       1.58755458E-03   7.47570311E-07   1.33992231E-03   3.17608342E-02
   0.00000000      0.300000012      0.973411441      0.962981045      0.264402717       3.74021562E-04  0.224668249       6.24079257E-06
   1.00000000       1.03448275E-02  0.946828663      0.933608830      0.492789686      -5.11655211E-03  0.419444233       7.79425912E-03
   1.00000000       2.06896551E-02  0.947893202      0.933648705      0.493372291      -1.00397160E-02  0.420231491       6.26379810E-03
   1.00000000       3.10344826E-02  0.948240757      0.933552206      0.492768526      -1.51264919E-02  0.419926673       5.64722344E-03
   1.00000000       4.13793102E-02  0.948367834      0.933399975      0.491115689      -2.02154610E-02  0.418737561       5.29647991E-03
   1.00000000       5.17241396E-02  0.948442698      0.933269918      0.488444984      -2.52118055E-02  0.416707456       5.04662283E-03
   1.00000000       6.20689653E-02  0.948528528      0.933243513      0.484700471      -3.00666317E-02  0.413781524       4.89163399E-03
   1.00000000       7.24137947E-02  0.948666275      0.933405638      0.479740292      -3.47673558E-02  0.409827590       4.86209430E-03
   1.00000000       8.27586204E-02  0.948906660      0.933837831      0.473346889      -3.93342935E-02  0.404655874       4.97025438E-03
   1.00000000       9.31034461E-02  0.949320972      0.934604466      0.465234667      -4.38240655E-02  0.398032904       5.17974980E-03
   1.00000000      0.103448279      0.949982584      0.935732484      0.455076635      -4.83308844E-02  0.389706850       5.41059300E-03
   1.00000000      0.113793105      0.950922966      0.937182546      0.442542076      -5.29831573E-02  0.379438698       5.57395071E-03
   1.00000000      0.124137931      0.952077687      0.938820660      0.427352637      -5.79309277E-02  0.367046684       5.62131032E-03
   1.00000000      0.134482756      0.953260720      0.940406382      0.409365296      -6.33163825E-02  0.352475256       5.57039306E-03
   1.00000000      0.144827589      0.954196990      0.941621363      0.388680845      -6.92227557E-02  0.335884988       5.48712350E-03
   1.00000000      0.155172408      0.954620421      0.942163408      0.365744263      -7.56062642E-02  0.317725658       5.44151664E-03
   1.00000000      0.165517241      0.954385936      0.941870451      0.341352195      -8.22442248E-02  0.298715889       5.47442399E-03
   1.00000000      0.175862074      0.953525960      0.940797865      0.316519350      -8.87530521E-02  0.279698282       5.59709594E-03
   1.00000000      0.186206892      0.952222824      0.939201117      0.292233944      -9.46806371E-02  0.261415720       5.81309758E-03
   1.00000000      0.196551725      0.950716317      0.937431097      0.269189686      -9.96172428E-02  0.244298190       6.14338368E-03
   1.00000000      0.206896558      0.949186146      0.935797632      0.247574180     -0.103232309      0.228315696       6.65445440E-03
   1.00000000      0.217241377      0.947648704      0.934481263      0.226936206     -0.105152570      0.212869123       7.51626864E-03
   1.00000000      0.227586210      0.945909679      0.933526754      0.206130534     -0.104704350      0.196690172       9.06580128E-03
   1.00000000      0.237931028      0.943630040      0.932896197      0.183445916     -0.100743398      0.177895665       1.17681697E-02
   1.00000000      0.248275861      0.940590858      0.932528555      0.157130867      -9.19126123E-02  0.154514298       1.58903673E-02
   1.00000000      0.258620679      0.937068522      0.932368398      0.126342386      -7.74623305E-02  0.125565931       2.09711306E-02
   1.00000000      0.268965513      0.933872283      0.932358384       9.19762254E-02  -5.81726097E-02   9.20516551E-02   2.57437807E-02
   1.00000000      0.279310346      0.931673706      0.932426274       5.62876686E-02  -3.63639183E-02   5.66127971E-02   2.91164853E-02
   1.00000000      0.289655179      0.930239916      0.932461023       2.05731206E-02  -1.43865934E-02   2.11917479E-02   3.13098840E-02
  0.989898980      0.300000012      0.929749310      0.932246149       1.63143892E-02  -7.23404670E-03   1.50626721E-02   3.18180807E-02
  0.979797959      0.300000012      0.930274487      0.931276739       4.18018661E-02  -8.40402301E-03   3.60165350E-02   2.99870856E-02
  0.969696999      0.300000012      0.932430029      0.929207265       7.05541298E-02  -8.84862430E-03   6.02003783E-02   2.45221891E-02
  0.959595978      0.300000012      0.934116185      0.925894082       9.99136418E-02  -8.29548482E-03   8.51083770E-02   1.84208229E-02
  0.949494958      0.300000012      0.933372021      0.921375513      0.127647161      -6.96864445E-03  0.108743280       1.46444160E-02
  0.939393938      0.300000012      0.930498064      0.915750563      0.152710363      -5.32800844E-03  0.130178079       1.28381141E-02
  0.929292917      0.300000012      0.926285684      0.909083128      0.175085306      -3.70372529E-03  0.149400994       1.18828509E-02
  0.919191897      0.300000012      0.921075165      0.901370347      0.195259407      -2.23608548E-03  0.166829303       1.12599917E-02
  0.909090936      0.300000012      0.914931357      0.892549634      0.213849023      -9.55554715E-04  0.182989284       1.07955411E-02
  0.898989916      0.300000012      0.907830775      0.882531047      0.231431067       1.50057458E-04  0.198378757       1.04148909E-02
  0.888888896      0.300000012      0.899740994      0.871246099      0.248481870       1.10341958E-03  0.213414207       1.00769028E-02
  0.878787875      0.300000012      0.890661955      0.858694971      0.265338808       1.92791841E-03  0.228394255       9.76488739E-03
  0.868686855      0.300000012      0.880675793      0.844995618      0.282159656       2.64555565E-03  0.243461773       9.46817920E-03
  0.858585835      0.300000012      0.869976521      0.830419898      0.298913062       3.26896738E-03  0.258590013       9.18084383E-03
  0.848484874      0.300000012      0.858860791      0.815373659      0.315406650       3.79780866E-03  0.273603290       8.89902562E-03
  0.838383853      0.300000012      0.847679079      0.800328374      0.331358135       4.21981746E-03  0.288237512       8.62129033E-03
  0.828282833      0.300000012      0.836771727      0.785732150      0.346485287       4.51603066E-03  0.302220494       8.34624469E-03
  0.818181813      0.300000012      0.826418877      0.771944582      0.360574067       4.67032148E-03  0.315336287       8.07245076E-03
  0.808080792      0.300000012      0.816827357      0.759223402      0.373495251       4.67749499E-03  0.327442795       7.79929012E-03
  0.797979772      0.300000012      0.808153629      0.747756302      0.385173082       4.54639364E-03  0.338445783       7.52613693E-03
  0.787878811      0.300000012      0.800533950      0.737703502      0.395541549       4.29774076E-03  0.348259270       7.25357234E-03
  0.777777791      0.300000012      0.794101477      0.729220748      0.404517204       3.95914121E-03  0.356781483       6.98287040E-03
  0.767676771      0.300000012      0.788980782      0.722453356      0.412006825       3.55932070E-03  0.363902360       6.71620667E-03
  0.757575750      0.300000012      0.785267651      0.717510343      0.417936206       3.12469970E-03  0.369532704       6.45495951E-03
  0.747474730      0.300000012      0.783008337      0.714439690      0.422280490       2.67779827E-03  0.373633802       6.19998574E-03
  0.737373710      0.300000012      0.782191277      0.713220000      0.425078392       2.23711715E-03  0.376232028       5.95302880E-03
  0.727272749      0.300000012      0.782752454      0.713766336      0.426428646       1.81716855E-03  0.377416164       5.71465492E-03
  0.717171729      0.300000012      0.784589589      0.715949535      0.426471651       1.42926618E-03  0.377319008       5.48669696E-03
  0.707070708      0.300000012      0.787579358      0.719615579      0.425368041       1.08140102E-03  0.376096338       5.26943803E-03
  0.696969688      0.300000012      0.791591644      0.724604547      0.423279405       7.78643123E-04  0.373907298       5.06427139E-03
  0.686868668      0.300000012      0.796499729      0.730760872      0.420356780       5.23386232E-04  0.370902300       4.87089902E-03
  0.676767647      0.300000012      0.802185714      0.737940609      0.416734278       3.15411278E-04  0.367216438       4.68929112E-03
  0.666666687      0.300000012      0.808542788      0.746013463      0.412527382       1.52392240E-04  0.362966865       4.51869518E-03
  0.656565666      0.300000012      0.815475285      0.754862785      0.407834589       3.01810687E-05  0.358254343       4.35852259E-03
  0.646464646      0.300000012      0.822898149      0.764384449      0.402740389      -5.63613503E-05  0.353165507       4.20756638E-03
  0.636363626      0.300000012      0.830734730      0.774484038      0.397318125      -1.13237198E-04  0.347775787       4.06446308E-03
  0.626262605      0.300000012      0.838916123      0.785076380      0.391632020      -1.46408784E-04  0.342150807       3.92808765E-03
  0.616161644      0.300000012      0.847379863      0.796083331      0.385738462      -1.61268079E-04  0.336347938       3.79722565E-03
  0.606060624      0.300000012      0.856070042      0.807433486      0.379685104      -1.61351811E-04  0.330415845       3.66968662E-03
  0.595959604      0.300000012      0.864936352      0.819061220      0.373509794      -1.49806321E-04  0.324393332       3.54267657E-03
  0.585858583      0.300000012      0.873933852      0.830906510      0.367241681      -1.28822139E-04  0.318310648       3.41283530E-03
  0.575757563      0.300000012      0.883021533      0.842913747      0.360900253      -9.90447661E-05  0.312188774       3.27733904E-03
  0.565656543      0.300000012      0.892162025      0.855032802      0.354493618      -5.96526370E-05  0.306037664       3.13504413E-03
  0.555555582      0.300000012      0.901321471      0.867219388      0.348018676      -9.31903105E-06  0.299856782       2.98730284E-03
  0.545454562      0.300000012      0.910470486      0.879435122      0.341461539       5.26878575E-05  0.293635637       2.83581391E-03
  0.535353541      0.300000012      0.919584095      0.891648173      0.334801197       1.24189959E-04  0.287357122       2.68362463E-03
  0.525252521      0.300000012      0.928641319      0.903829873      0.328019291       1.97154164E-04  0.281006336       2.53164396E-03
  0.515151501      0.300000012      0.937618434      0.915947974      0.321117312       2.59922817E-04  0.274585426       2.38136575E-03
  0.505050480      0.300000012      0.946483135      0.927956700      0.314129740       3.03526816E-04  0.268125325       2.23274715E-03
  0.494949490      0.300000012      0.955192804      0.939795315      0.307118416       3.27715214E-04  0.261680275       2.08570808E-03
  0.484848499      0.300000012      0.963692188      0.951386213      0.300161570       3.35991790E-04  0.255318373       1.94145180E-03
  0.474747479      0.300000012      0.971903980      0.962619424      0.293364674       3.25714558E-04  0.249131382       1.80042628E-03
  0.464646459      0.300000012      0.979717076      0.973337233      0.286881536       2.90329335E-04  0.243252590       1.66335516E-03
  0.454545468      0.300000012      0.986980736      0.983324468      0.280914545       2.26458098E-04  0.237857178       1.53053971E-03
  0.444444448      0.300000012      0.993496358      0.992298245      0.275705725       1.33147056E-04  0.233154520       1.40323432E-03
  0.434343427      0.300000012      0.999013603      0.999901056      0.271534175       1.01273499E-05  0.229386389       1.28271407E-03
  0.424242437      0.300000012       1.00324011       1.00571442      0.268708974      -1.41582379E-04  0.226821050       1.16933836E-03
  0.414141417      0.300000012       1.00587332       1.00930595      0.267540842      -3.15953919E-04  0.225728601       1.06434454E-03
  0.404040396      0.300000012       1.00666320       1.01031733      0.268278629      -4.98045003E-04  0.226326793       9.66904685E-04
  0.393939406      0.300000012       1.00549591       1.00858665      0.271016598      -6.61864004E-04  0.228700280       8.76740320E-04
  0.383838385      0.300000012       1.00247753       1.00426590      0.275602639      -7.75034947E-04  0.232720196       7.92596140E-04
  0.373737365      0.300000012      0.997968674      0.997868598      0.281599373      -8.09838122E-04  0.238007829       7.13106827E-04
  0.363636374      0.300000012      0.992528439      0.990186751      0.288347453      -7.56400404E-04  0.243986905       6.37720572E-04
  0.353535354      0.300000012      0.986772060      0.982086957      0.295127004      -6.29651477E-04  0.250022650       5.67240641E-04
  0.343434334      0.300000012      0.981204689      0.974275887      0.301349640      -4.63313540E-04  0.255591273       5.03076240E-04
  0.333333343      0.300000012      0.976116121      0.967154622      0.306680322      -2.94002821E-04  0.260390371       4.46295366E-04
  0.323232323      0.300000012      0.971574783      0.960813105      0.311044097      -1.49183121E-04  0.264348358       3.96509655E-04
  0.313131303      0.300000012      0.967497289      0.955131292      0.314545184      -4.22724006E-05  0.267554551       3.53230163E-04
  0.303030312      0.300000012      0.963739455      0.949906170      0.317358226       2.57096763E-05  0.270162582       3.15956771E-04
  0.292929292      0.300000012      0.960168660      0.944952130      0.319645435       6.10961069E-05  0.272316128       2.83876434E-04
  0.282828271      0.300000012      0.956699193      0.940149844      0.321514755       7.28694722E-05  0.274110764       2.56728381E-04
  0.272727281      0.300000012      0.953299820      0.935454965      0.323012054       6.96107163E-05  0.275586545       2.33896077E-04
  0.262626261      0.300000012      0.949984014      0.930885732      0.324132860       5.85511698E-05  0.276738137       2.15394422E-04
  0.252525240      0.300000012      0.946794927      0.926500142      0.324842125       4.49130312E-05  0.277532309       2.00763345E-04
  0.242424250      0.300000012      0.943789423      0.922374189      0.325093865       3.24193607E-05  0.277925730       1.88764185E-04
  0.232323229      0.300000012      0.941025436      0.918585837      0.324847430       2.30450732E-05  0.277879328       1.79208815E-04
  0.222222224      0.300000012      0.938553810      0.915202379      0.324078470       1.76492340E-05  0.277368546       1.71057880E-04
  0.212121218      0.300000012      0.936414301      0.912275910      0.322786093       1.61605421E-05  0.276389599       1.63391232E-04
  0.202020198      0.300000012      0.934633791      0.909841776      0.320994377       1.79136223E-05  0.274961084       1.56123191E-04
  0.191919193      0.300000012      0.933227956      0.907919347      0.318750381       2.22660710E-05  0.273122162       1.48322433E-04
  0.181818187      0.300000012      0.932203710      0.906517267      0.316119611       2.88439605E-05  0.270928562       1.40316784E-04
  0.171717167      0.300000012      0.931562126      0.905636728      0.313179314       3.79246012E-05  0.268446624       1.32370740E-04
  0.161616161      0.300000012      0.931301832      0.905275643      0.310010970       5.04938907E-05  0.265746683       1.24748796E-04
  0.151515156      0.300000012      0.931421578      0.905432343      0.306693256       6.79953737E-05  0.262896866       1.17842108E-04
  0.141414136      0.300000012      0.931921721      0.906107664      0.303296715       9.19989761E-05  0.259958178       1.11870468E-04
  0.131313130      0.300000012      0.932804286      0.907304823      0.299879581       1.23771708E-04  0.256981343       1.06990337E-04
  0.121212125      0.300000012      0.934072912      0.909029543      0.296486855       1.63679259E-04  0.254005373       1.03391707E-04
  0.111111112      0.300000012      0.935730755      0.911286891      0.293150455       2.10832339E-04  0.251058280       1.00992620E-04
  0.101010099      0.300000012      0.937779009      0.914079249      0.289891094       2.63309485E-04  0.248158619       9.92901623E-05
   9.09090936E-02  0.300000012      0.940214217      0.917402864      0.286721110       3.18080100E-04  0.245317936       9.79453325E-05
   8.08080807E-02  0.300000012      0.943026125      0.921245217      0.283647805       3.71707254E-04  0.242543712       9.68128443E-05
   7.07070678E-02  0.300000012      0.946196556      0.925582170      0.280676246       4.20768978E-04  0.239842072       9.45776701E-05
   6.06060624E-02  0.300000012      0.949697018      0.930375516      0.277812123       4.62231343E-04  0.237219930       9.01855528E-05
   5.05050495E-02  0.300000012      0.953488827      0.935572386      0.275064230       4.93716740E-04  0.234687477       8.18148255E-05
   4.04040404E-02  0.300000012      0.957521737      0.941104054      0.272448093       5.13296225E-04  0.232260853       6.80666417E-05
   3.03030312E-02  0.300000012      0.961732388      0.946884751      0.269988298       5.19725611E-04  0.229964226       4.87640500E-05
   2.02020202E-02  0.300000012      0.966042697      0.952812314      0.267718196       5.13874460E-04  0.227829099       2.88393348E-05
   1.01010101E-02  0.300000012      0.970355988      0.958759606      0.265682727       4.92628722E-04  0.225897163       1.42455101E-05
   0.00000000      0.289655179      0.973686695      0.963361681      0.264063388       3.97272670E-05  0.224367067       5.63729554E-06
   0.00000000      0.279310346      0.973753035      0.963453412      0.263812274      -2.28458710E-04  0.224150732       5.41936606E-06
   0.00000000      0.268965513      0.973788261      0.963502049      0.263805360      -4.41660493E-04  0.224143505       5.30108809E-06
   0.00000000      0.258620679      0.973802388      0.963521600      0.263986111      -6.36385696E-04  0.224296778       5.27966768E-06
   0.00000000      0.248275861      0.973798931      0.963516295      0.264338285      -8.26351985E-04  0.224596635       4.70038503E-06
   0.00000000      0.237931028      0.973777294      0.963486016      0.264863551      -1.01839611E-03  0.225044563       4.36697155E-06
   0.00000000      0.227586210      0.973735094      0.963427305      0.265572846      -1.21506897E-03  0.225649893       4.11365181E-06
   0.00000000      0.217241377      0.973669112      0.963335276      0.266482741      -1.41676422E-03  0.226426974       3.44403088E-06
   0.00000000      0.206896558      0.973574579      0.963203967      0.267611951      -1.62243494E-03  0.227391869       3.06218863E-06
   0.00000000      0.196551725      0.973446190      0.963025868      0.268980026      -1.82918133E-03  0.228561491       2.80421227E-06
   0.00000000      0.186206892      0.973278284      0.962792933      0.270604521      -2.03296356E-03  0.229951054       2.39349902E-06
   0.00000000      0.175862074      0.973064601      0.962496996      0.272498548      -2.22796551E-03  0.231571913       2.36835331E-06
   0.00000000      0.165517241      0.972799778      0.962130189      0.274668634      -2.40730890E-03  0.233429939       2.30036676E-06
   0.00000000      0.155172408      0.972478449      0.961685419      0.277112126      -2.56301463E-03  0.235523134       2.38325447E-06
   0.00000000      0.144827589      0.972097218      0.961157620      0.279813975      -2.68642628E-03  0.237838939       2.39163637E-06
   0.00000000      0.134482756      0.971654475      0.960544884      0.282745987      -2.76917079E-03  0.240353450       2.48663127E-06
   0.00000000      0.124137931      0.971152127      0.959849656      0.285865039      -2.80359248E-03  0.243030027       2.37673521E-06
   0.00000000      0.113793105      0.970595539      0.959079564      0.289113432      -2.78415857E-03  0.245819435       2.38977373E-06
   0.00000000      0.103448279      0.969994724      0.958248377      0.292421371      -2.70811841E-03  0.248661965       2.24262476E-06
   0.00000000       9.31034461E-02  0.969363987      0.957375944      0.295710474      -2.57632276E-03  0.251490384       2.05449760E-06
   0.00000000       8.27586204E-02  0.968721330      0.956487119      0.298899442      -2.39330321E-03  0.254234701       1.68941915E-06
   0.00000000       7.24137947E-02  0.968086720      0.955609918      0.301910371      -2.16704421E-03  0.256827772       1.60932541E-06
   0.00000000       6.20689653E-02  0.967481136      0.954772890      0.304674327      -1.90797460E-03  0.259209901       1.34110451E-06
   0.00000000       5.17241396E-02  0.966923416      0.954002142      0.307137132      -1.62779249E-03  0.261333913       9.92789865E-07
   0.00000000       4.13793102E-02  0.966429174      0.953319192      0.309261948      -1.33786886E-03  0.263167590       7.02217221E-07
   0.00000000       3.10344826E-02  0.966009438      0.952739477      0.311030447      -1.04818353E-03  0.264694512       5.32716513E-07
   0.00000000       2.06896551E-02  0.965669334      0.952269793      0.312443525      -7.66908925E-04  0.265915155       4.54485416E-07
   0.00000000       1.03448275E-02  0.965406954      0.951907575      0.313520908      -5.01715404E-04  0.266846120       4.76837158E-07
   1.01942774E-02  -1.06002917E-05  0.965528250      0.952075422      0.313727528      -6.62930543E-04  0.267015487       8.69855285E-07
   2.03885511E-02  -4.05888240E-05  0.966334164      0.953190386      0.313048959      -1.40219345E-03  0.266395211       3.23168933E-06
   3.05827484E-02  -8.74972393E-05  0.967642784      0.955000639      0.311730742      -2.12590117E-03  0.265204847       5.96605241E-06
   4.07768898E-02  -1.49138228E-04  0.969475031      0.957536459      0.309800744      -2.80939625E-03  0.263467461       9.26107168E-06
   5.09709269E-02  -2.23550553E-04  0.971853733      0.960830331      0.307267934      -3.44273169E-03  0.261190623       1.25281513E-05
   6.11648858E-02  -3.08956922E-04  0.974793375      0.964904904      0.304135561      -4.01568413E-03  0.258377731       1.59218907E-05
   7.13587478E-02  -4.03728453E-04  0.978296280      0.969766676      0.300407112      -4.51565534E-03  0.255033284       1.99982896E-05
   8.15525427E-02  -5.06357115E-04  0.982348859      0.975400746      0.296089560      -4.92808921E-03  0.251165837       2.53831968E-05
   9.17462707E-02  -6.15430705E-04  0.986920536      0.981768250      0.291195482      -5.23700379E-03  0.246789947       3.20244581E-05
  0.101939946      -7.29613879E-04  0.991960704      0.988803208      0.285746783      -5.42794168E-03  0.241929039       4.05781902E-05
  0.112133577      -8.47629446E-04  0.997396767      0.996408582      0.279780358      -5.48893074E-03  0.236620337       5.14176209E-05
  0.122327171      -9.68243345E-04   1.00313199       1.00445259      0.273355871      -5.41344238E-03  0.230921209       6.47064298E-05
  0.132520750      -1.09024998E-03   1.00904167       1.01276326      0.266563386      -5.20059466E-03  0.224915653       8.10050406E-05
  0.142714337      -1.21245917E-03   1.01497555       1.02113068      0.259528011      -4.85699251E-03  0.218717426       1.00165606E-04
  0.152907923      -1.33368257E-03   1.02076519       1.02931702      0.252407551      -4.39755479E-03  0.212467536       1.22016296E-04
  0.163101539      -1.45272142E-03   1.02624071       1.03707993      0.245378762      -3.84518504E-03  0.206321642       1.45741738E-04
  0.173295200      -1.56835280E-03   1.03125393       1.04420578      0.238615751      -3.22969607E-03  0.200430885       1.70882791E-04
  0.183488905      -1.67931605E-03   1.03570271       1.05054438      0.232266918      -2.58464389E-03  0.194921866       1.96261331E-04
  0.193682685      -1.78429752E-03   1.03954744       1.05603552      0.226431742      -1.94347068E-03  0.189876914       2.22133473E-04
  0.203876525      -1.88191328E-03   1.04281950       1.06071925      0.221149266      -1.33464474E-03  0.185324878       2.47795135E-04
  0.214070454      -1.97069068E-03   1.04560900       1.06472123      0.216401234      -7.77795096E-04  0.181244671       2.73775309E-04
  0.224264458      -2.04904471E-03   1.04804647       1.06822670      0.212124318      -2.81844841E-04  0.177576452       3.00824642E-04
  0.234458551      -2.11525219E-03   1.05027771       1.07144380      0.208228245       1.55302958E-04  0.174238101       3.30565497E-04
  0.244652733      -2.16741930E-03   1.05243683       1.07456458      0.204618573       5.45639778E-04  0.171145052       3.64031643E-04
  0.254846990      -2.20344099E-03   1.05461967       1.07772708      0.201221213       9.08914546E-04  0.168231651       4.02003527E-04
  0.265041292      -2.22095218E-03   1.05686271       1.08098471      0.198005542       1.26977731E-03  0.165470958       4.45673242E-04
  0.275235593      -2.21726228E-03   1.05913389       1.08429229      0.194998309       1.65445043E-03  0.162886366       4.95441258E-04
  0.285429865      -2.18927371E-03   1.06133938       1.08751464      0.192282468       2.08713044E-03  0.160550207       5.50620258E-04
  0.295624018      -2.13337177E-03   1.06334794       1.09046268      0.189975500       2.58865091E-03  0.158564582       6.10854477E-04
  0.305817962      -2.04527588E-03   1.06502795       1.09294701      0.188192904       3.17557459E-03  0.157029778       6.76229596E-04
  0.316011488      -1.91983546E-03   1.06628764       1.09483445      0.187005758       3.86415189E-03  0.156007916       7.46790320E-04
  0.326204360      -1.75073801E-03   1.06710327       1.09608936      0.186410055       4.67403745E-03  0.155497000       8.21925700E-04
  0.336396307      -1.53008103E-03   1.06752741       1.09678638      0.186312854       5.63413789E-03  0.155419588       9.01173800E-04
  0.346586645      -1.24772848E-03   1.06768382       1.09710479      0.186536267       6.78824447E-03  0.155626640       9.86475497E-04
  0.356774658      -8.90274358E-04   1.06775737       1.09730875      0.186829790       8.19997769E-03  0.155909255       1.07582659E-03
  0.366958946      -4.39326104E-04   1.06798565       1.09774137      0.186879188       9.97505896E-03  0.156008199       1.17066503E-03
  0.377137065       1.33766516E-04   1.06867218       1.09884179      0.186327249       1.26136737E-02  0.155653864       1.27298012E-03
  0.387299746       9.32033930E-04   1.07013607       1.10107315      0.185191929       1.66126247E-02  0.154920846       1.38511509E-03
  0.397434235       2.03104783E-03   1.07273722       1.10495889      0.183443978       2.16130055E-02  0.153817788       1.50926039E-03
  0.407523632       3.48527054E-03   1.07698011       1.11123693      0.180745319       2.73839645E-02  0.152100831       1.64849684E-03
  0.417543113       5.36030158E-03   1.08336496       1.12064612      0.176855534       3.39563750E-02  0.149647251       1.80477276E-03
  0.427456856       7.73026003E-03   1.09211159       1.13353431      0.172055721       4.13929410E-02  0.146804407       1.98222697E-03
  0.437217921       1.06651187E-02   1.10284388       1.14939439      0.167572930       4.97502908E-02  0.144712210       2.18610838E-03
  0.446780443       1.41935814E-02   1.11444998       1.16664207      0.165800303       5.87788895E-02  0.145308346       2.42428482E-03
  0.456144422       1.82216074E-02   1.12538147       1.18302453      0.169740692       6.68849573E-02  0.150389165       2.70342827E-03
  0.465438336       2.24102195E-02   1.13441336       1.19671273      0.180780530       6.96159974E-02  0.159405872       3.01648676E-03
  0.474928796       2.61229333E-02   1.14149225       1.20758903      0.195003375       6.11861758E-02  0.167936653       3.35494429E-03
  0.484786808       2.86871437E-02   1.14765406       1.21720028      0.204302832       4.14589457E-02  0.171079442       3.74552608E-03
  0.494905144       2.98680626E-02   1.15374780       1.22682345      0.204231620       1.84205696E-02  0.168067113       4.20650095E-03
  0.505094886       2.98680626E-02   1.15965092       1.23623025      0.196570009      -2.22931872E-03  0.160914481       4.70004976E-03
  0.515213192       2.86871418E-02   1.16470253       1.24447477      0.183399484      -2.19794028E-02  0.151023731       5.26148826E-03
  0.525071204       2.61229314E-02   1.16867340       1.25130558      0.165492579      -3.94602492E-02  0.138959080       5.97057492E-03
  0.534561634       2.24102195E-02   1.17192805       1.25722969      0.145766065      -4.83522937E-02  0.125315100       6.80017471E-03
  0.543855608       1.82216056E-02   1.17458856       1.26226020      0.128859401      -4.69597466E-02  0.111814581       7.61879236E-03
  0.553219557       1.41935805E-02   1.17624009       1.26567876      0.118047193      -4.02465761E-02  0.101614617       8.35636258E-03
  0.562782109       1.06651178E-02   1.17658484       1.26716125      0.113812916      -3.30582224E-02   9.65187103E-02   9.11673903E-03
  0.572543144       7.73025956E-03   1.17568052       1.26699150      0.114683501      -2.68957969E-02   9.59005430E-02   1.00592375E-02
  0.582456887       5.36030112E-03   1.17376888       1.26552045      0.118800126      -2.16617882E-02   9.82905328E-02   1.11757517E-02
  0.592476368       3.48527008E-03   1.17119014       1.26296985      0.124766797      -1.70693249E-02  0.102489412       1.22373626E-02