 title = "grid"
                                   variables = "x","y","rho","P","u","v","M","S"
 zone n=        3000  e =        5742  et=quadrilateral, f=fepoint
   0.00000000       0.00000000      0.957470477      0.940969586      0.347797871      -3.87347274E-04  0.296509117       6.89178705E-08
   1.00000000       0.00000000      0.944452524      0.931636155      0.324498057       5.51941746E-04  0.276131302       9.19690728E-03
   1.00000000      0.300000012      0.951691687      0.933164358      0.373152643       2.06847442E-04  0.318486959       1.45902857E-04
   0.00000000      0.300000012      0.957392812      0.940862715      0.347238392       3.60054837E-05  0.296036780       7.63684511E-08
   1.00000000       1.03448275E-02  0.945861280      0.931749284      0.330644995       1.00211520E-03  0.281555593       7.23155402E-03
   1.00000000       2.06896551E-02  0.947449982      0.931801140      0.338346928       1.46057433E-03  0.288349211       4.93772142E-03
   1.00000000       3.10344826E-02  0.948528111      0.931847870      0.344341874       1.80373585E-03  0.293619186       3.39568034E-03
   1.00000000       4.13793102E-02  0.949266911      0.931892991      0.349278599       2.06583878E-03  0.297938555       2.35410780E-03
   1.00000000       5.17241396E-02  0.949776888      0.931939065      0.353381664       2.26817722E-03  0.301512957       1.65160000E-03
   1.00000000       6.20689653E-02  0.950132310      0.931987703      0.356777757       2.42474489E-03  0.304460377       1.18000247E-03
   1.00000000       7.24137947E-02  0.950384438      0.932039499      0.359569281       2.54460261E-03  0.306875348       8.64079222E-04
   1.00000000       8.27586204E-02  0.950568259      0.932094991      0.361847937       2.63367849E-03  0.308841109       6.52885064E-04
   1.00000000       9.31034461E-02  0.950707614      0.932154298      0.363698661       2.69585196E-03  0.310433924       5.11270016E-04
   1.00000000      0.103448279      0.950818360      0.932217538      0.365198702       2.73347762E-03  0.311722040       4.16044146E-04
   1.00000000      0.113793105      0.950910747      0.932284176      0.366417646       2.74802558E-03  0.312766552       3.51535156E-04
   1.00000000      0.124137931      0.950991690      0.932354033      0.367415607       2.74047721E-03  0.313619912       3.07263806E-04
   1.00000000      0.134482756      0.951065481      0.932426572      0.368243009       2.71138037E-03  0.314325869       2.76399776E-04
   1.00000000      0.144827589      0.951134682      0.932501376      0.368940324       2.66132713E-03  0.314919591       2.54781917E-04
   1.00000000      0.155172408      0.951201379      0.932577431      0.369539350       2.59069609E-03  0.315428644       2.38159671E-04
   1.00000000      0.165517241      0.951265812      0.932654023      0.370063871       2.50015385E-03  0.315873533       2.25482509E-04
   1.00000000      0.175862074      0.951328218      0.932730258      0.370530665       2.39037024E-03  0.316268772       2.15342268E-04
   1.00000000      0.186206892      0.951389134      0.932805300      0.370951235       2.26225262E-03  0.316624463       2.06140801E-04
   1.00000000      0.196551725      0.951447725      0.932878077      0.371332139       2.11697794E-03  0.316946238       1.97997317E-04
   1.00000000      0.206896558      0.951503694      0.932947457      0.371676922       1.95579813E-03  0.317237288       1.90040097E-04
   1.00000000      0.217241377      0.951555967      0.933012545      0.371986568       1.78029272E-03  0.317498475       1.82811171E-04
   1.00000000      0.227586210      0.951604187      0.933072388      0.372260213       1.59231736E-03  0.317729175       1.76049769E-04
   1.00000000      0.237931028      0.951647460      0.933125913      0.372495890       1.39385380E-03  0.317927718       1.69787556E-04
   1.00000000      0.248275861      0.951685250      0.933172464      0.372691661       1.18721894E-03  0.318092614       1.64043158E-04
   1.00000000      0.258620679      0.951717377      0.933211267      0.372845113       9.74920928E-04  0.318221807       1.58390030E-04
   1.00000000      0.268965513      0.951742947      0.933241606      0.372955203       7.59450544E-04  0.318314433       1.53215602E-04
   1.00000000      0.279310346      0.951761961      0.933264017      0.373022586       5.42900409E-04  0.318370968       1.49311498E-04
   1.00000000      0.289655179      0.951774836      0.933278859      0.373054802       3.25329165E-04  0.318397880       1.46266073E-04
  0.989898980      0.300000012      0.952096701      0.933719456      0.372847199       2.49737001E-04  0.318199366       1.44854188E-04
  0.979797959      0.300000012      0.953059494      0.935040116      0.372189492       2.38896246E-04  0.317574084       1.43257901E-04
  0.969696999      0.300000012      0.954036891      0.936381400      0.371507734       2.30026679E-04  0.316927642       1.41674653E-04
  0.959595978      0.300000012      0.955022156      0.937734187      0.370809078       2.22636154E-04  0.316266537       1.40273944E-04
  0.949494958      0.300000012      0.956007957      0.939087987      0.370101511       2.16758650E-04  0.315598190       1.38530508E-04
  0.939393938      0.300000012      0.956986725      0.940432966      0.369392574       2.12434883E-04  0.314929456       1.37139112E-04
  0.929292917      0.300000012      0.957951069      0.941758573      0.368689239       2.09636011E-04  0.314266682       1.35648996E-04
  0.919191897      0.300000012      0.958893597      0.943054914      0.367998302       2.08402053E-04  0.313616276       1.34499744E-04
  0.909090936      0.300000012      0.959807694      0.944312036      0.367325783       2.08722660E-04  0.312983781       1.32603571E-04
  0.898989916      0.300000012      0.960686386      0.945520937      0.366677821       2.10325481E-04  0.312374741       1.30929053E-04
  0.888888896      0.300000012      0.961523235      0.946672678      0.366060257       2.13007836E-04  0.311794639       1.29291788E-04
  0.878787875      0.300000012      0.962312043      0.947758794      0.365478754       2.16644301E-04  0.311248481       1.27902254E-04
  0.868686855      0.300000012      0.963047564      0.948771417      0.364938676       2.21013790E-04  0.310741335       1.26108527E-04
  0.858585835      0.300000012      0.963724196      0.949702859      0.364445448       2.25857133E-04  0.310278058       1.24029815E-04
  0.848484874      0.300000012      0.964337170      0.950546503      0.364004016       2.31004873E-04  0.309863210       1.21837482E-04
  0.838383853      0.300000012      0.964882135      0.951296449      0.363619298       2.36288193E-04  0.309501082       1.19490549E-04
  0.828282833      0.300000012      0.965355217      0.951947272      0.363295704       2.41496775E-04  0.309195727       1.17165968E-04
  0.818181813      0.300000012      0.965753376      0.952494442      0.363037080       2.46477633E-04  0.308950543       1.14506111E-04
  0.808080792      0.300000012      0.966074169      0.952934802      0.362846553       2.51216465E-04  0.308768302       1.11769885E-04
  0.797979772      0.300000012      0.966316044      0.953266442      0.362726241       2.55694205E-04  0.308650881       1.09203160E-04
  0.787878811      0.300000012      0.966478825      0.953488767      0.362677425       2.59682711E-04  0.308599353       1.06601045E-04
  0.777777791      0.300000012      0.966563165      0.953602254      0.362700254       2.63280264E-04  0.308613867       1.03484839E-04
  0.767676771      0.300000012      0.966570675      0.953609884      0.362793654       2.66499497E-04  0.308693320       1.00621954E-04
  0.757575750      0.300000012      0.966504514      0.953515291      0.362955332       2.69165612E-04  0.308835626       9.72524285E-05
  0.747474730      0.300000012      0.966368616      0.953324616      0.363182187       2.71277037E-04  0.309037834       9.40989703E-05
  0.737373710      0.300000012      0.966168225      0.953045011      0.363469750       2.72863370E-04  0.309295803       9.10609961E-05
  0.727272749      0.300000012      0.965909660      0.952684820      0.363812864       2.73785728E-04  0.309604913       8.77827406E-05
  0.717171729      0.300000012      0.965599537      0.952253640      0.364205867       2.74058460E-04  0.309959710       8.46646726E-05
  0.707070708      0.300000012      0.965245485      0.951761782      0.364642322       2.73586280E-04  0.310354441       8.14627856E-05
  0.696969688      0.300000012      0.964855194      0.951219857      0.365115404       2.72590638E-04  0.310782731       7.80597329E-05
  0.686868668      0.300000012      0.964436710      0.950639486      0.365617841       2.71172641E-04  0.311237872       7.50944018E-05
  0.676767647      0.300000012      0.963997781      0.950030923      0.366142154       2.69500277E-04  0.311713010       7.20787793E-05
  0.666666687      0.300000012      0.963546276      0.949405134      0.366680026       2.68056523E-04  0.312200695       6.89867884E-05
  0.656565666      0.300000012      0.963089406      0.948771775      0.367222786       2.67261639E-04  0.312693000       6.56489283E-05
  0.646464646      0.300000012      0.962634265      0.948140860      0.367760837       2.67820898E-04  0.313181281       6.22570515E-05
  0.636363626      0.300000012      0.962187350      0.947521508      0.368283480       2.70382705E-04  0.313656002       5.88502735E-05
  0.626262605      0.300000012      0.961754858      0.946921945      0.368778944       2.75771104E-04  0.314106762       5.53429127E-05
  0.616161644      0.300000012      0.961342394      0.946350634      0.369234025       2.84574315E-04  0.314521849       5.23850322E-05
  0.606060624      0.300000012      0.960955679      0.945814729      0.369634837       2.97326274E-04  0.314889133       4.92203981E-05
  0.595959604      0.300000012      0.960599482      0.945321202      0.369967103       3.14279023E-04  0.315196037       4.62792814E-05
  0.585858583      0.300000012      0.960278332      0.944876254      0.370216429       3.35488818E-04  0.315429986       4.36250120E-05
  0.575757563      0.300000012      0.959996402      0.944485247      0.370368749       3.60534352E-04  0.315578759       4.08366323E-05
  0.565656543      0.300000012      0.959756374      0.944152176      0.370412171       3.88607441E-04  0.315631956       3.82326543E-05
  0.555555582      0.300000012      0.959560335      0.943880200      0.370337307       4.18281590E-04  0.315581441       3.60701233E-05
  0.545454562      0.300000012      0.959409177      0.943670034      0.370138824       4.48002771E-04  0.315422595       3.39448452E-05
  0.535353541      0.300000012      0.959302187      0.943520844      0.369816124       4.76269779E-04  0.315154970       3.19462270E-05
  0.525252521      0.300000012      0.959238052      0.943430841      0.369373173       5.02414128E-04  0.314781994       3.02288681E-05
  0.515151501      0.300000012      0.959215164      0.943397760      0.368815780       5.27719909E-04  0.314308792       2.85562128E-05
  0.505050480      0.300000012      0.959232271      0.943419755      0.368149281       5.54201019E-04  0.313739985       2.68667936E-05
  0.494949490      0.300000012      0.959287345      0.943494260      0.367377847       5.82814857E-04  0.313079178       2.54865736E-05
  0.484848499      0.300000012      0.959376991      0.943616629      0.366507769       6.12616946E-04  0.312332124       2.43447721E-05
  0.474747479      0.300000012      0.959497452      0.943781435      0.365547001       6.43869513E-04  0.311505765       2.32085586E-05
  0.464646459      0.300000012      0.959644794      0.943983138      0.364502281       6.77909760E-04  0.310606182       2.18860805E-05
  0.454545468      0.300000012      0.959815025      0.944216669      0.363378555       7.14726513E-04  0.309637815       2.09175050E-05
  0.444444448      0.300000012      0.960002840      0.944474339      0.362183034       7.50786101E-04  0.308607280       1.99228525E-05
  0.434343427      0.300000012      0.960201740      0.944747090      0.360928655       7.82270508E-04  0.307525992       1.85873359E-05
  0.424242437      0.300000012      0.960404694      0.945025504      0.359632611       8.06638680E-04  0.306409001       1.73375010E-05
  0.414141417      0.300000012      0.960604668      0.945299745      0.358313680       8.23192706E-04  0.305272788       1.60150230E-05
  0.404040396      0.300000012      0.960795403      0.945561528      0.356990516       8.32011283E-04  0.304133564       1.49775296E-05
  0.393939406      0.300000012      0.960971415      0.945803106      0.355680197       8.33780388E-04  0.303006351       1.40331686E-05
  0.383838385      0.300000012      0.961127579      0.946016908      0.354398161       8.29022378E-04  0.301904589       1.25598162E-05
  0.373737365      0.300000012      0.961259604      0.946197331      0.353158355       8.18341388E-04  0.300840378       1.09672546E-05
  0.363636374      0.300000012      0.961363792      0.946339726      0.351973206       8.02513445E-04  0.299824476       9.69320536E-06
  0.353535354      0.300000012      0.961437702      0.946440637      0.350852847       7.82444782E-04  0.298865616       8.66316259E-06
  0.343434334      0.300000012      0.961479843      0.946497560      0.349805325       7.59038958E-04  0.297970831       7.49342144E-06
  0.333333343      0.300000012      0.961488724      0.946508944      0.348836988       7.32846675E-04  0.297145545       6.58072531E-06
  0.323232323      0.300000012      0.961463928      0.946473837      0.347952902       7.04191800E-04  0.296394080       5.56744635E-06
  0.313131303      0.300000012      0.961405456      0.946392596      0.347157061       6.73513685E-04  0.295719832       4.89316881E-06
  0.303030312      0.300000012      0.961313784      0.946265817      0.346452087       6.41114719E-04  0.295124948       4.39770520E-06
  0.292929292      0.300000012      0.961190283      0.946094930      0.345839441       6.07392867E-04  0.294610679       3.64705920E-06
  0.282828271      0.300000012      0.961036205      0.945882261      0.345319599       5.72702033E-04  0.294177294       3.28011811E-06
  0.272727281      0.300000012      0.960853577      0.945630491      0.344891757       5.37442742E-04  0.293823957       3.18698585E-06
  0.262626261      0.300000012      0.960644662      0.945342481      0.344554037       5.02059993E-04  0.293548971       2.93180346E-06
  0.252525240      0.300000012      0.960412085      0.945022047      0.344303548       4.66859288E-04  0.293349773       2.94111669E-06
  0.242424250      0.300000012      0.960158825      0.944673002      0.344135851       4.32306959E-04  0.293222308       2.71573663E-06
  0.232323229      0.300000012      0.959888041      0.944299757      0.344045907       3.98706121E-04  0.293162256       2.43261456E-06
  0.222222224      0.300000012      0.959603012      0.943906903      0.344027758       3.66342341E-04  0.293164164       2.10292637E-06
  0.212121218      0.300000012      0.959307015      0.943499327      0.344074637       3.35411081E-04  0.293222189       2.12527812E-06
  0.202020198      0.300000012      0.959004104      0.943082154      0.344179243       3.06067552E-04  0.293329895       2.03214586E-06
  0.191919193      0.300000012      0.958698273      0.942661226      0.344334006       2.78351654E-04  0.293480456       2.14204192E-06
  0.181818187      0.300000012      0.958393872      0.942242205      0.344531059       2.52273516E-04  0.293667048       2.09361315E-06
  0.171717167      0.300000012      0.958095133      0.941830754      0.344762683       2.27828234E-04  0.293882847       1.77323818E-06
  0.161616161      0.300000012      0.957806408      0.941433489      0.345020950       2.04970347E-04  0.294120669       1.84960663E-06
  0.151515156      0.300000012      0.957532585      0.941056669      0.345297754       1.83670883E-04  0.294373482       1.85519457E-06
  0.141414136      0.300000012      0.957278311      0.940706551      0.345585555       1.63828227E-04  0.294634521       1.51433051E-06
  0.131313130      0.300000012      0.957047760      0.940389216      0.345876694       1.45481012E-04  0.294896960       1.36531889E-06
  0.121212125      0.300000012      0.956845462      0.940110981      0.346163839       1.28563639E-04  0.295154274       1.42306089E-06
  0.111111112      0.300000012      0.956675529      0.939877272      0.346439868       1.13146030E-04  0.295400083       1.41747296E-06
  0.101010099      0.300000012      0.956541717      0.939693093      0.346697807       9.92903733E-05  0.295628309       1.23865902E-06
   9.09090936E-02  0.300000012      0.956446946      0.939562738      0.346931279       8.69980431E-05  0.295833260       1.26287341E-06
   8.08080807E-02  0.300000012      0.956394017      0.939489663      0.347134084       7.62831187E-05  0.296009511       9.44361091E-07
   7.07070678E-02  0.300000012      0.956384480      0.939476132      0.347300619       6.73668692E-05  0.296152174       5.04776835E-07
   6.06060624E-02  0.300000012      0.956419170      0.939523518      0.347425997       6.02121945E-05  0.296256989       2.03028321E-07
   5.05050495E-02  0.300000012      0.956497669      0.939631402      0.347506076       5.49009710E-05  0.296320438       6.33299351E-08
   4.04040404E-02  0.300000012      0.956619084      0.939798594      0.347537637       5.12523402E-05  0.296339780       3.33413482E-07
   3.03030312E-02  0.300000012      0.956781566      0.940022051      0.347519130       4.89653430E-05  0.296313941       2.77534127E-07
   2.02020202E-02  0.300000012      0.956981361      0.940296769      0.347451240       4.73378605E-05  0.296243697       1.78813934E-07
   1.01010101E-02  0.300000012      0.957212746      0.940615118      0.347338796       4.43383578E-05  0.296133488       2.29105353E-07
   0.00000000      0.289655179      0.957411289      0.940888166      0.347207367       3.14798745E-05  0.296009183       1.26659870E-07
   0.00000000      0.279310346      0.957422495      0.940903485      0.347166330       3.18109996E-05  0.295973510      -1.86264515E-08
   0.00000000      0.268965513      0.957436979      0.940923512      0.347118437       3.32875534E-05  0.295931786       1.28522515E-07
   0.00000000      0.258620679      0.957454741      0.940947950      0.347062707       3.50114351E-05  0.295883149       1.00582838E-07
   0.00000000      0.248275861      0.957475662      0.940976858      0.346999139       3.65894957E-05  0.295827657       2.08616257E-07
   0.00000000      0.237931028      0.957499802      0.941009939      0.346928269       3.76142198E-05  0.295765758       6.70552254E-08
   0.00000000      0.227586210      0.957526863      0.941047013      0.346850395       3.80664205E-05  0.295697719      -6.51925802E-08
   0.00000000      0.217241377      0.957556248      0.941087544      0.346766710       3.76838398E-05  0.295624554       2.79396772E-08
   0.00000000      0.206896558      0.957587957      0.941131175      0.346678168       3.64165317E-05  0.295547128      -7.45058060E-09
   0.00000000      0.196551725      0.957621336      0.941177130      0.346585959       3.40088700E-05  0.295466453       7.26431608E-08
   0.00000000      0.186206892      0.957656085      0.941224813      0.346491814       3.02340723E-05  0.295384079      -6.89178705E-08
   0.00000000      0.175862074      0.957691491      0.941273749      0.346397519       2.49904915E-05  0.295301467       1.89989805E-07
   0.00000000      0.165517241      0.957726955      0.941322565      0.346305341       1.80029947E-05  0.295220703       1.62050128E-07
   0.00000000      0.155172408      0.957761943      0.941370428      0.346217573       9.04596345E-06  0.295143783      -1.37835741E-07
   0.00000000      0.144827589      0.957795322      0.941416383      0.346137226      -2.11824454E-06  0.295073211      -1.37835741E-07
   0.00000000      0.134482756      0.957826316      0.941458941      0.346067339      -1.57716131E-05  0.295011759      -2.21654773E-07
   0.00000000      0.124137931      0.957853615      0.941496789      0.346011251      -3.20375511E-05  0.294962198       8.19563866E-08
   0.00000000      0.113793105      0.957876623      0.941528440      0.345972836      -5.11521903E-05  0.294928044       5.02914190E-08
   0.00000000      0.103448279      0.957893908      0.941552103      0.345956206      -7.34978457E-05  0.294912815      -7.26431608E-08
   0.00000000       9.31034461E-02  0.957904279      0.941566288      0.345965594      -9.93015783E-05  0.294920176      -1.54599547E-07
   0.00000000       8.27586204E-02  0.957906067      0.941568971      0.346005768      -1.28755986E-04  0.294954300       6.33299351E-08
   0.00000000       7.24137947E-02  0.957898378      0.941558421      0.346081734      -1.62003344E-04  0.295019567       1.32247806E-07
   0.00000000       6.20689653E-02  0.957879543      0.941532433      0.346198708      -1.99220856E-04  0.295120448       5.02914190E-08
   0.00000000       5.17241396E-02  0.957847893      0.941488981      0.346362323      -2.40193651E-04  0.295261890       1.73225999E-07
   0.00000000       4.13793102E-02  0.957802296      0.941426039      0.346578181      -2.84271344E-04  0.295448750      -8.19563866E-08
   0.00000000       3.10344826E-02  0.957741022      0.941341817      0.346852541      -3.29405069E-04  0.295686454       4.84287739E-08
   0.00000000       2.06896551E-02  0.957662880      0.941234410      0.347192228      -3.70806752E-04  0.295980871       1.82539225E-07
   0.00000000       1.03448275E-02  0.957567215      0.941102743      0.347604483      -3.96787073E-04  0.296338260       1.06170774E-07
   1.01942774E-02  -1.06002917E-05  0.957717001      0.941308796      0.347612292      -6.08472968E-04  0.296335936       7.07805157E-08
   2.03885511E-02  -4.05888240E-05  0.958301067      0.942112744      0.347098142      -1.18600309E-03  0.295862794       2.70083547E-07
   3.05827484E-02  -8.74972393E-05  0.958944738      0.942998946      0.346418440      -1.70695444E-03  0.295245588       4.11644578E-07
   4.07768898E-02  -1.49138228E-04  0.959631979      0.943945467      0.345609754      -2.16019875E-03  0.294516295       6.89178705E-07
   5.09709269E-02  -2.23550553E-04  0.960352719      0.944938600      0.344695061      -2.54826900E-03  0.293694973       1.20140612E-06
   6.11648858E-02  -3.08956922E-04  0.961098850      0.945966780      0.343691707      -2.87520769E-03  0.292796820       1.36718154E-06
   7.13587478E-02  -4.03728453E-04  0.961861849      0.947018564      0.342614293      -3.14513687E-03  0.291834652       1.64844096E-06
   8.15525427E-02  -5.06357115E-04  0.962633789      0.948083222      0.341476679      -3.36190895E-03  0.290820748       2.10292637E-06
   9.17462707E-02  -6.15430705E-04  0.963406503      0.949149072      0.340292186      -3.52852512E-03  0.289766967       2.32830644E-06
  0.101939946      -7.29613879E-04  0.964171469      0.950204492      0.339073658      -3.64783406E-03  0.288684696       2.47918069E-06
  0.112133577      -8.47629446E-04  0.964920342      0.951238453      0.337833375      -3.72205162E-03  0.287584811       3.11620533E-06
  0.122327171      -9.68243345E-04  0.965645790      0.952239931      0.336583078      -3.75315151E-03  0.286477804       3.18139791E-06
  0.132520750      -1.09024998E-03  0.966339409      0.953198195      0.335333794      -3.74243152E-03  0.285373479       3.76254320E-06
  0.142714337      -1.21245917E-03  0.966994584      0.954103589      0.334095299      -3.69099830E-03  0.284280539       4.29898500E-06
  0.152907923      -1.33368257E-03  0.967605174      0.954947531      0.332876325      -3.59949470E-03  0.283206761       4.70504165E-06
  0.163101539      -1.45272142E-03  0.968165696      0.955722570      0.331684530      -3.46815703E-03  0.282158941       5.26383519E-06
  0.173295200      -1.56835280E-03  0.968671501      0.956422269      0.330526084      -3.29666655E-03  0.281142652       5.90831041E-06
  0.183488905      -1.67931605E-03  0.969119489      0.957042158      0.329405487      -3.08428309E-03  0.280161858       6.42798841E-06
  0.193682685      -1.78429752E-03  0.969506919      0.957578242      0.328325838      -2.82960501E-03  0.279219329       6.84708357E-06
  0.203876525      -1.88191328E-03  0.969832182      0.958028436      0.327288330      -2.53062043E-03  0.278316289       7.31088221E-06
  0.214070454      -1.97069068E-03  0.970094681      0.958392382      0.326292336      -2.18467508E-03  0.277452081       8.27200711E-06
  0.224264458      -2.04904471E-03  0.970295131      0.958670259      0.325335145      -1.78814342E-03  0.276624620       8.87177885E-06
  0.234458551      -2.11525219E-03  0.970434964      0.958864748      0.324411988      -1.33660866E-03  0.275829762       9.99122858E-06
  0.244652733      -2.16741930E-03  0.970516980      0.958978951      0.323515534      -8.24515068E-04  0.275061309       1.07455999E-05
  0.254846990      -2.20344099E-03  0.970545292      0.959019005      0.322636098      -2.44882656E-04  0.274311095       1.16880983E-05
  0.265041292      -2.22095218E-03  0.970524848      0.958991945      0.321760923       4.10807581E-04  0.273568124       1.30068511E-05
  0.275235593      -2.21726228E-03  0.970462143      0.958906472      0.320874363       1.15325744E-03  0.272819221       1.42902136E-05
  0.285429865      -2.18927371E-03  0.970365524      0.958774030      0.319957078       1.99568714E-03  0.272048116       1.55754387E-05
  0.295624018      -2.13337177E-03  0.970244229      0.958607733      0.318985701       2.95512378E-03  0.271235108       1.71400607E-05
  0.305817962      -2.04527588E-03  0.970109642      0.958422780      0.317931980       4.05315263E-03  0.270356834       1.83917582E-05
  0.316011488      -1.91983546E-03  0.969973803      0.958236635      0.316761732       5.31834038E-03  0.269385070       2.01538205E-05
  0.326204360      -1.75073801E-03  0.969851196      0.958068907      0.315433323       6.78821141E-03  0.268286169       2.20909715E-05
  0.336396307      -1.53008103E-03  0.969757855      0.957942247      0.313895494       8.51426180E-03  0.267019361       2.46297568E-05
  0.346586645      -1.24772848E-03  0.969712317      0.957882226      0.312084317       1.05689764E-02  0.265535265       2.77310610E-05
  0.356774658      -8.90274358E-04  0.969735444      0.957917511      0.309918880       1.30581120E-02  0.263773859       3.11583281E-05
  0.366958946      -4.39326104E-04  0.969851792      0.958083093      0.307294488       1.61634292E-02  0.261662692       3.60198319E-05
  0.377137065       1.33766516E-04  0.970106900      0.958443403      0.304118991       2.06963606E-02  0.259184778       4.38224524E-05
  0.387299746       9.32033930E-04  0.970392168      0.958848119      0.301007211       2.75524389E-02  0.256994277       5.44246286E-05
  0.397434235       2.03104783E-03  0.970467389      0.958966494      0.298653275       3.63414548E-02  0.255790114       6.93108886E-05
  0.407523632       3.48527054E-03  0.970236242      0.958668828      0.297342390       4.69648689E-02  0.255945861       9.24039632E-05
  0.417543113       5.36030158E-03  0.969588459      0.957810342      0.297484815       5.98900691E-02  0.258037060       1.31495297E-04
  0.427456856       7.73026003E-03  0.968261003      0.956042707      0.300008148       7.57585540E-02  0.263178200       2.02374533E-04
  0.437217921       1.06651187E-02  0.965763152      0.952719152      0.306681335       9.51586664E-02  0.273234993       3.36211175E-04
  0.446780443       1.41935814E-02  0.961226285      0.946693182      0.320605576      0.117781624      0.290874749       5.83400950E-04
  0.456144422       1.82216074E-02  0.953326881      0.936197817      0.346332759      0.140112236      0.318626046       9.87963751E-04
  0.465438336       2.24102195E-02  0.940992832      0.919782698      0.386957824      0.152106196      0.355426401       1.52984262E-03
  0.474928796       2.61229333E-02  0.925804436      0.899580598      0.435779750      0.139530420      0.392315656       2.10256875E-03
  0.484786808       2.86871437E-02  0.912954152      0.882618308      0.474780083       9.86453742E-02  0.416815370       2.63502821E-03
  0.494905144       2.98680626E-02  0.906533301      0.874449372      0.491275609       4.50508557E-02  0.424525857       3.21767479E-03
  0.505094886       2.98680626E-02  0.905390084      0.873521268      0.488342375      -7.14468071E-03  0.420230955       3.92235816E-03
  0.515213192       2.86871418E-02  0.906417847      0.875863492      0.470531523      -5.97173199E-02  0.407793730       5.01176342E-03
  0.525071204       2.61229314E-02  0.909634113      0.881557405      0.437333554     -0.109330624      0.387008637       6.53284788E-03
  0.534561634       2.24102195E-02  0.916671991      0.892392993      0.394299686     -0.139419198      0.358238429       7.95910507E-03
  0.543855608       1.82216056E-02  0.926774025      0.907014906      0.352600694     -0.141027331      0.324431002       8.86728801E-03
  0.553219557       1.41935805E-02  0.936494410      0.920775056      0.320055455     -0.122916713      0.292221457       9.31689143E-03
  0.562782109       1.06651178E-02  0.943308592      0.930329084      0.298514217      -9.94620249E-02  0.267774820       9.48962756E-03
  0.572543144       7.73025956E-03  0.947191775      0.935723364      0.285972297      -7.84257576E-02  0.252145737       9.51979682E-03
  0.582456887       5.36030112E-03  0.949083984      0.938318074      0.279505372      -6.14324585E-02  0.243247196       9.49488394E-03
  0.592476368       3.48527008E-03  0.949763119      0.939232409      0.276893616      -4.79407199E-02  0.238827169       9.46742855E-03