 title = "grid"
                                   variables = "x","y","rho","P","u","v","M","S"
 zone n=        3000  e =        5742  et=quadrilateral, f=fepoint
   0.00000000       0.00000000      0.959694505      0.944030881      0.337806672      -2.72736012E-04  0.287857652      -3.91155481E-08
   1.00000000       0.00000000      0.945253849      0.932789743      0.325776845       5.50488709E-04  0.277165502       9.24702175E-03
   1.00000000      0.300000012      0.950744450      0.931853831      0.363113582      -1.92999825E-04  0.309982061       1.34680420E-04
   0.00000000      0.300000012      0.961043537      0.945889294      0.333372295      -8.56363476E-05  0.283999056       5.02914190E-08
   1.00000000       1.03448275E-02  0.946637571      0.932814062      0.332031250       6.32753945E-04  0.282689750       7.22520798E-03
   1.00000000       2.06896551E-02  0.948228657      0.932843328      0.339674592       6.35283126E-04  0.289435625       4.90542874E-03
   1.00000000       3.10344826E-02  0.949264705      0.932849050      0.345502526       5.46347292E-04  0.294561327       3.38272192E-03
   1.00000000       4.13793102E-02  0.949952781      0.932837129      0.350189716       4.03013139E-04  0.298667371       2.35556625E-03
   1.00000000       5.17241396E-02  0.950409234      0.932811797      0.353972495       2.28457604E-04  0.301970094       1.65583752E-03
   1.00000000       6.20689653E-02  0.950706661      0.932775557      0.356983781       3.79961057E-05  0.304592460       1.17893331E-03
   1.00000000       7.24137947E-02  0.950893939      0.932730734      0.359333068      -1.57785384E-04  0.306634575       8.55104998E-04
   1.00000000       8.27586204E-02  0.951004744      0.932678938      0.361119360      -3.50809743E-04  0.308185518       6.36460260E-04
   1.00000000       9.31034461E-02  0.951062500      0.932621717      0.362435132      -5.34920488E-04  0.309327483       4.90052626E-04
   1.00000000      0.103448279      0.951084197      0.932560384      0.363365024      -7.05060840E-04  0.310135096       3.92368063E-04
   1.00000000      0.113793105      0.951081932      0.932496011      0.363986045      -8.57472653E-04  0.310675740       3.26702371E-04
   1.00000000      0.124137931      0.951063812      0.932429850      0.364365965      -9.89310094E-04  0.311008394       2.82401219E-04
   1.00000000      0.134482756      0.951035678      0.932362974      0.364562839      -1.09834946E-03  0.311183304       2.52103433E-04
   1.00000000      0.144827589      0.951001883      0.932296395      0.364624858      -1.18311727E-03  0.311242044       2.30450183E-04
   1.00000000      0.155172408      0.950964928      0.932230890      0.364591390      -1.24289340E-03  0.311218500       2.14546919E-04
   1.00000000      0.165517241      0.950926960      0.932167351      0.364493698      -1.27750740E-03  0.311139613       2.02311203E-04
   1.00000000      0.175862074      0.950888872      0.932106555      0.364355952      -1.28729979E-03  0.311025977       1.93158165E-04
   1.00000000      0.186206892      0.950852633      0.932049096      0.364197105      -1.27325300E-03  0.310894012       1.84873119E-04
   1.00000000      0.196551725      0.950818777      0.931995451      0.364030838      -1.23665540E-03  0.310755372       1.77161768E-04
   1.00000000      0.206896558      0.950787306      0.931946039      0.363867521      -1.17916963E-03  0.310618877       1.70445070E-04
   1.00000000      0.217241377      0.950758994      0.931901276      0.363714755      -1.10290630E-03  0.310491145       1.64119527E-04
   1.00000000      0.227586210      0.950734079      0.931861520      0.363577664      -1.01020944E-03  0.310376406       1.58196315E-04
   1.00000000      0.237931028      0.950712502      0.931827188      0.363459796      -9.03783715E-04  0.310277760       1.53096393E-04
   1.00000000      0.248275861      0.950694501      0.931798220      0.363363385      -7.86426943E-04  0.310197115       1.48504972E-04
   1.00000000      0.258620679      0.950680256      0.931774676      0.363289148      -6.61133323E-04  0.310135096       1.44224614E-04
   1.00000000      0.268965513      0.950669944      0.931756556      0.363236338      -5.30849909E-04  0.310091138       1.39998272E-04
   1.00000000      0.279310346      0.950662792      0.931743741      0.363202900      -3.98406177E-04  0.310063422       1.36729330E-04
   1.00000000      0.289655179      0.950657845      0.931735158      0.363185108      -2.64788716E-04  0.310048789       1.34795904E-04
  0.989898980      0.300000012      0.950337887      0.931295455      0.363357693      -2.18539513E-04  0.310217083       1.34069473E-04
  0.979797959      0.300000012      0.949377358      0.929976404      0.363896936      -2.12258863E-04  0.310740530       1.32419169E-04
  0.969696999      0.300000012      0.948408544      0.928646386      0.364451617      -2.07423494E-04  0.311278015       1.30617991E-04
  0.959595978      0.300000012      0.947436512      0.927312434      0.365017027      -2.03525211E-04  0.311825186       1.28790736E-04
  0.949494958      0.300000012      0.946466982      0.925982594      0.365587622      -2.00588183E-04  0.312376857       1.27056614E-04
  0.939393938      0.300000012      0.945506811      0.924665868      0.366157204      -1.98752037E-04  0.312927395       1.25017017E-04
  0.929292917      0.300000012      0.944562733      0.923371375      0.366719931      -1.98149937E-04  0.313471287       1.22632831E-04
  0.919191897      0.300000012      0.943641663      0.922108769      0.367269665      -1.98886526E-04  0.314002872       1.20207667E-04
  0.909090936      0.300000012      0.942750633      0.920887589      0.367800802      -2.00901850E-04  0.314516813       1.17585063E-04
  0.898989916      0.300000012      0.941895962      0.919716597      0.368308336      -2.04468830E-04  0.315008372       1.14910305E-04
  0.888888896      0.300000012      0.941083729      0.918604016      0.368787706      -2.09584497E-04  0.315473199       1.12310052E-04
  0.878787875      0.300000012      0.940319717      0.917557478      0.369235128      -2.16335247E-04  0.315907687       1.09385699E-04
  0.868686855      0.300000012      0.939608276      0.916583121      0.369647831      -2.24749092E-04  0.316309124       1.06554478E-04
  0.858585835      0.300000012      0.938953578      0.915686429      0.370023698      -2.34800929E-04  0.316675335       1.03656203E-04
  0.848484874      0.300000012      0.938359082      0.914872229      0.370361805      -2.46598269E-04  0.317005336       1.00739300E-04
  0.838383853      0.300000012      0.937827110      0.914143682      0.370661706      -2.60139874E-04  0.317298502       9.79788601E-05
  0.828282833      0.300000012      0.937359989      0.913503408      0.370923847      -2.75361555E-04  0.317555010       9.48496163E-05
  0.818181813      0.300000012      0.936958849      0.912953317      0.371149659      -2.92235549E-04  0.317776054       9.17352736E-05
  0.808080792      0.300000012      0.936624706      0.912494481      0.371340662      -3.10649019E-04  0.317962795       8.83825123E-05
  0.797979772      0.300000012      0.936357439      0.912127256      0.371499449      -3.30507202E-04  0.318117410       8.54395330E-05
  0.787878811      0.300000012      0.936157227      0.911851525      0.371628404      -3.51700030E-04  0.318241924       8.25002789E-05
  0.777777791      0.300000012      0.936023295      0.911666512      0.371730506      -3.74075928E-04  0.318338901       7.98813999E-05
  0.767676771      0.300000012      0.935954988      0.911570668      0.371808976      -3.97407799E-04  0.318411291       7.68713653E-05
  0.757575750      0.300000012      0.935950577      0.911562026      0.371867388      -4.21480334E-04  0.318462044       7.39768147E-05
  0.747474730      0.300000012      0.936008513      0.911638081      0.371909201      -4.46032820E-04  0.318494469       7.07618892E-05
  0.737373710      0.300000012      0.936126232      0.911795735      0.371937841      -4.70689818E-04  0.318511516       6.76512718E-05
  0.727272749      0.300000012      0.936301053      0.912031293      0.371956468      -4.95165179E-04  0.318516076       6.45630062E-05
  0.717171729      0.300000012      0.936529696      0.912340224      0.371968508      -5.19033580E-04  0.318511367       6.13592565E-05
  0.707070708      0.300000012      0.936808527      0.912717760      0.371976584      -5.41953021E-04  0.318499833       5.83529472E-05
  0.696969688      0.300000012      0.937133729      0.913158655      0.371983230      -5.63474663E-04  0.318483889       5.53876162E-05
  0.686868668      0.300000012      0.937501013      0.913657129      0.371990323      -5.83109562E-04  0.318465561       5.25489450E-05
  0.676767647      0.300000012      0.937906265      0.914207518      0.371999174      -6.00559870E-04  0.318446010       4.96692955E-05
  0.666666687      0.300000012      0.938344657      0.914803326      0.372010738      -6.15321624E-04  0.318426639       4.69870865E-05
  0.656565666      0.300000012      0.938812017      0.915438592      0.372025251      -6.27040921E-04  0.318407834       4.40441072E-05
  0.646464646      0.300000012      0.939303577      0.916107237      0.372042149      -6.35397388E-04  0.318389386       4.12911177E-05
  0.636363626      0.300000012      0.939815044      0.916803479      0.372060210      -6.39948528E-04  0.318370551       3.88883054E-05
  0.626262605      0.300000012      0.940342367      0.917521775      0.372077256      -6.40460174E-04  0.318349779       3.67760658E-05
  0.616161644      0.300000012      0.940882027      0.918257296      0.372090459      -6.36595651E-04  0.318324834       3.48687172E-05
  0.606060624      0.300000012      0.941431105      0.919005632      0.372095734      -6.27614616E-04  0.318292558       3.26968729E-05
  0.595959604      0.300000012      0.941986799      0.919763505      0.372087359      -6.13219221E-04  0.318248093       3.09236348E-05
  0.585858583      0.300000012      0.942547381      0.920528173      0.372058749      -5.93199336E-04  0.318186015       2.90460885E-05
  0.575757563      0.300000012      0.943111122      0.921297491      0.372002572      -5.67533250E-04  0.318100184       2.73101032E-05
  0.565656543      0.300000012      0.943676710      0.922070146      0.371910602      -5.36400476E-04  0.317983508       2.62856483E-05
  0.555555582      0.300000012      0.944243491      0.922844827      0.371774554      -5.00180235E-04  0.317829132       2.55294144E-05
  0.545454562      0.300000012      0.944811344      0.923620939      0.371585220      -4.59417090E-04  0.317629158       2.44379044E-05
  0.535353541      0.300000012      0.945379913      0.924398243      0.371333748      -4.15275019E-04  0.317376167       2.34581530E-05
  0.525252521      0.300000012      0.945949256      0.925176919      0.371011525      -3.69570043E-04  0.317062676       2.26050615E-05
  0.515151501      0.300000012      0.946519554      0.925956964      0.370611578      -3.24430031E-04  0.316682875       2.16141343E-05
  0.505050480      0.300000012      0.947090447      0.926737905      0.370130002      -2.81591871E-04  0.316233367       2.04406679E-05
  0.494949490      0.300000012      0.947661877      0.927519739      0.369565338      -2.41346279E-04  0.315712988       1.93417072E-05
  0.484848499      0.300000012      0.948233664      0.928302705      0.368917733      -2.03428615E-04  0.315121830       1.86413527E-05
  0.474747479      0.300000012      0.948806226      0.929086626      0.368189067      -1.68138955E-04  0.314461589       1.76467001E-05
  0.464646459      0.300000012      0.949379265      0.929871142      0.367383480      -1.35647846E-04  0.313735843       1.64303929E-05
  0.454545468      0.300000012      0.949952781      0.930656672      0.366506130      -1.05684456E-04  0.312948972       1.53239816E-05
  0.444444448      0.300000012      0.950526953      0.931443274      0.365562856      -7.81642593E-05  0.312105983       1.42976642E-05
  0.434343427      0.300000012      0.951101601      0.932230771      0.364560127      -5.36648804E-05  0.311212391       1.32657588E-05
  0.424242437      0.300000012      0.951676130      0.933018029      0.363506049      -3.29300965E-05  0.310275316       1.19432807E-05
  0.414141417      0.300000012      0.952249348      0.933804095      0.362409472      -1.66135560E-05  0.309302181       1.10827386E-05
  0.404040396      0.300000012      0.952820301      0.934587598      0.361279696      -5.08307949E-06  0.308301061       1.05798244E-05
  0.393939406      0.300000012      0.953388512      0.935367227      0.360125959       1.78367986E-06  0.307280004       9.81427729E-06
  0.383838385      0.300000012      0.953953326      0.936142266      0.358956754       4.37886501E-06  0.306246221       8.90903175E-06
  0.373737365      0.300000012      0.954514265      0.936912298      0.357779503       3.05637468E-06  0.305206060       8.13230872E-06
  0.363636374      0.300000012      0.955071270      0.937677205      0.356600493      -1.57779743E-06  0.304164916       7.51949847E-06
  0.353535354      0.300000012      0.955624402      0.938437223      0.355424643      -8.85941427E-06  0.303126931       7.14696944E-06
  0.343434334      0.300000012      0.956174135      0.939192712      0.354255557      -1.80868956E-05  0.302095205       6.76326454E-06
  0.333333343      0.300000012      0.956721008      0.939944386      0.353095829      -2.86810482E-05  0.301071852       6.23241067E-06
  0.323232323      0.300000012      0.957265139      0.940692723      0.351947188      -4.01055258E-05  0.300058335       6.12065196E-06
  0.313131303      0.300000012      0.957806826      0.941437781      0.350810349      -5.18972374E-05  0.299055308       5.79468906E-06
  0.303030312      0.300000012      0.958346188      0.942179799      0.349686116      -6.36191762E-05  0.298063427       5.49852848E-06
  0.292929292      0.300000012      0.958883107      0.942918420      0.348574430      -7.48742168E-05  0.297082663       5.03845513E-06
  0.282828271      0.300000012      0.959416628      0.943652570      0.347475767      -8.55959079E-05  0.296113402       4.61190939E-06
  0.272727281      0.300000012      0.959945619      0.944380879      0.346390516      -9.54575153E-05  0.295156062       4.37349081E-06
  0.262626261      0.300000012      0.960468709      0.945101202      0.345319331      -1.04392151E-04  0.294211298       4.12389636E-06
  0.252525240      0.300000012      0.960983813      0.945810616      0.344263852      -1.12472815E-04  0.293280631       3.90224159E-06
  0.242424250      0.300000012      0.961488247      0.946505666      0.343226016      -1.19596327E-04  0.292365819       3.81283462E-06
  0.232323229      0.300000012      0.961979151      0.947182119      0.342208505      -1.25864855E-04  0.291469365       3.59490514E-06
  0.222222224      0.300000012      0.962452829      0.947834909      0.341214865      -1.31303852E-04  0.290594459       3.33972275E-06
  0.212121218      0.300000012      0.962905347      0.948458731      0.340248942      -1.36019327E-04  0.289744616       3.23727727E-06
  0.202020198      0.300000012      0.963332593      0.949047685      0.339315444      -1.40040385E-04  0.288924098       2.96160579E-06
  0.191919193      0.300000012      0.963729620      0.949595273      0.338419288      -1.43447076E-04  0.288137287       2.85916030E-06
  0.181818187      0.300000012      0.964091778      0.950094640      0.337565631      -1.46110950E-04  0.287388921       2.57603824E-06
  0.171717167      0.300000012      0.964414299      0.950539351      0.336759835      -1.48144944E-04  0.286683768       2.34507024E-06
  0.161616161      0.300000012      0.964692116      0.950922608      0.336007059      -1.49473402E-04  0.286026448       2.20350921E-06
  0.151515156      0.300000012      0.964920580      0.951237738      0.335311949      -1.50072607E-04  0.285421252       1.97812915E-06
  0.141414136      0.300000012      0.965095341      0.951478720      0.334678978      -1.49915824E-04  0.284872174       1.80490315E-06
  0.131313130      0.300000012      0.965212107      0.951639712      0.334112078      -1.48944411E-04  0.284382790       1.58697367E-06
  0.121212125      0.300000012      0.965267360      0.951716006      0.333614439      -1.47137194E-04  0.283955961       1.59628689E-06
  0.111111112      0.300000012      0.965258121      0.951703012      0.333188832      -1.44547608E-04  0.283594251       1.38767064E-06
  0.101010099      0.300000012      0.965182066      0.951597929      0.332837135      -1.41253549E-04  0.283299387       1.29267573E-06
   9.09090936E-02  0.300000012      0.965037584      0.951398611      0.332561076      -1.37382260E-04  0.283072889       1.37463212E-06
   8.08080807E-02  0.300000012      0.964823902      0.951103628      0.332361519      -1.33139853E-04  0.282915592       1.32247806E-06
   7.07070678E-02  0.300000012      0.964541018      0.950713396      0.332239389      -1.28768777E-04  0.282828182       1.41188502E-06
   6.06060624E-02  0.300000012      0.964190185      0.950229228      0.332194954      -1.24603190E-04  0.282810926       1.37835741E-06
   5.05050495E-02  0.300000012      0.963773191      0.949653864      0.332228512      -1.20900761E-04  0.282864004       1.29826367E-06
   4.04040404E-02  0.300000012      0.963292778      0.948991120      0.332339615      -1.17747615E-04  0.282986820       1.22189522E-06
   3.03030312E-02  0.300000012      0.962753117      0.948246896      0.332527250      -1.15216666E-04  0.283178329       1.17160380E-06
   2.02020202E-02  0.300000012      0.962159455      0.947428286      0.332788229      -1.12647933E-04  0.283435553       1.09151006E-06
   1.01010101E-02  0.300000012      0.961520910      0.946547747      0.333113104      -1.06400315E-04  0.283749998       6.96629286E-07
   0.00000000      0.289655179      0.960998833      0.945827723      0.333437383      -6.50466318E-05  0.284057140       6.14672899E-08
   0.00000000      0.279310346      0.960979760      0.945801556      0.333511978      -5.81378226E-05  0.284121752       1.91852450E-07
   0.00000000      0.268965513      0.960958183      0.945771813      0.333588511      -5.60665758E-05  0.284188271       2.21654773E-07
   0.00000000      0.258620679      0.960932970      0.945737183      0.333670914      -5.54754661E-05  0.284259945       2.83122063E-07
   0.00000000      0.248275861      0.960904419      0.945697844      0.333760202      -5.53680911E-05  0.284337699       3.05473804E-07
   0.00000000      0.237931028      0.960872829      0.945654154      0.333856136      -5.55275183E-05  0.284421295       1.30385160E-07
   0.00000000      0.227586210      0.960838258      0.945606470      0.333958179      -5.56939449E-05  0.284510285       3.53902578E-08
   0.00000000      0.217241377      0.960801184      0.945555329      0.334065646      -5.61061715E-05  0.284604073       5.02914190E-08
   0.00000000      0.206896558      0.960761786      0.945501089      0.334177643      -5.67176794E-05  0.284701794       1.67638063E-08
   0.00000000      0.196551725      0.960720599      0.945444345      0.334293514      -5.75662016E-05  0.284802973       2.60770321E-08
   0.00000000      0.186206892      0.960678041      0.945385754      0.334412605      -5.89086667E-05  0.284906924       1.39698386E-07
   0.00000000      0.175862074      0.960634410      0.945325673      0.334534258      -6.09248527E-05  0.285013169       1.21071935E-07
   0.00000000      0.165517241      0.960590065      0.945264399      0.334658504      -6.38392521E-05  0.285121679      -6.70552254E-08
   0.00000000      0.155172408      0.960544884      0.945202172      0.334785581      -6.79159857E-05  0.285232633      -2.23517418E-08
   0.00000000      0.144827589      0.960499227      0.945139229      0.334915608      -7.34093628E-05  0.285346121      -9.68575478E-08
   0.00000000      0.134482756      0.960452735      0.945075333      0.335049719      -8.05682139E-05  0.285463154       6.14672899E-08
   0.00000000      0.124137931      0.960405588      0.945010304      0.335188657      -8.94941622E-05  0.285584331       2.60770321E-08
   0.00000000      0.113793105      0.960357726      0.944944322      0.335333794      -1.00608740E-04  0.285710841      -3.16649675E-08
   0.00000000      0.103448279      0.960308373      0.944876492      0.335487276      -1.14196067E-04  0.285844535       1.02445483E-07
   0.00000000       9.31034461E-02  0.960257471      0.944806337      0.335651129      -1.30399829E-04  0.285987198       3.16649675E-08
   0.00000000       8.27586204E-02  0.960204422      0.944733381      0.335827678      -1.49472515E-04  0.286140770       2.19792128E-07
   0.00000000       7.24137947E-02  0.960148871      0.944656789      0.336019844      -1.71529551E-04  0.286307812       8.19563866E-08
   0.00000000       6.20689653E-02  0.960089982      0.944575608      0.336230695      -1.96710840E-04  0.286491036       2.23517418E-08
   0.00000000       5.17241396E-02  0.960026920      0.944488645      0.336463898      -2.24719057E-04  0.286693513      -4.47034836E-08
   0.00000000       4.13793102E-02  0.959958851      0.944395006      0.336723387      -2.54657731E-04  0.286918700       3.72529030E-09
   0.00000000       3.10344826E-02  0.959885359      0.944293737      0.337013364      -2.83705478E-04  0.287170231      -2.23517418E-08
   0.00000000       2.06896551E-02  0.959805727      0.944184124      0.337338865      -3.05603346E-04  0.287452340       1.30385160E-08
   0.00000000       1.03448275E-02  0.959720194      0.944066286      0.337705195      -3.04996414E-04  0.287769645      -2.98023224E-08
   1.01942774E-02  -1.06002917E-05  0.959644079      0.943961680      0.337860733      -4.92731633E-04  0.287906885       2.68220901E-07
   2.03885511E-02  -4.05888240E-05  0.959513903      0.943782449      0.337895960      -1.04248757E-03  0.287945777       2.96160579E-07
   3.05827484E-02  -8.74972393E-05  0.959393322      0.943616509      0.337858766      -1.55070657E-03  0.287922978       3.85567546E-07
   4.07768898E-02  -1.49138228E-04  0.959268749      0.943445146      0.337790728      -2.00216984E-03  0.287874490       5.77419996E-07
   5.09709269E-02  -2.23550553E-04  0.959135234      0.943261564      0.337713897      -2.39814003E-03  0.287819207       7.82310963E-07
   6.11648858E-02  -3.08956922E-04  0.958991230      0.943063796      0.337640375      -2.74187862E-03  0.287767321       1.33365393E-06
   7.13587478E-02  -4.03728453E-04  0.958837211      0.942851961      0.337576300      -3.03660287E-03  0.287724048       1.58138573E-06
   8.15525427E-02  -5.06357115E-04  0.958674729      0.942628622      0.337523967      -3.28547345E-03  0.287691116       1.88872218E-06
   9.17462707E-02  -6.15430705E-04  0.958506525      0.942397058      0.337482393      -3.49063613E-03  0.287667572       1.88685954E-06
  0.101939946      -7.29613879E-04  0.958335400      0.942161679      0.337448567      -3.65406671E-03  0.287650466       2.07498670E-06
  0.112133577      -8.47629446E-04  0.958165228      0.941927731      0.337417215      -3.77698801E-03  0.287635058       2.35065818E-06
  0.122327171      -9.68243345E-04  0.958000183      0.941700995      0.337382048      -3.86048621E-03  0.287615746       2.72877514E-06
  0.132520750      -1.09024998E-03  0.957844496      0.941487074      0.337336063      -3.90486070E-03  0.287586302       3.10689211E-06
  0.142714337      -1.21245917E-03  0.957702339      0.941291630      0.337271720      -3.91023792E-03  0.287540019       3.28943133E-06
  0.152907923      -1.33368257E-03  0.957578003      0.941120923      0.337181062      -3.87635827E-03  0.287469804       3.66941094E-06
  0.163101539      -1.45272142E-03  0.957475483      0.940980256      0.337056637      -3.80264688E-03  0.287369132       4.11272049E-06
  0.173295200      -1.56835280E-03  0.957398593      0.940874875      0.336890966      -3.68780340E-03  0.287231326       4.50201333E-06
  0.183488905      -1.67931605E-03  0.957350433      0.940809190      0.336676955      -3.53027112E-03  0.287050277       5.17070293E-06
  0.193682685      -1.78429752E-03  0.957334042      0.940787077      0.336407930      -3.32790706E-03  0.286820084       5.65871596E-06
  0.203876525      -1.88191328E-03  0.957351625      0.940811396      0.336077482      -3.07808910E-03  0.286535263       5.76302409E-06
  0.214070454      -1.97069068E-03  0.957404613      0.940884650      0.335679501      -2.77743582E-03  0.286190510       6.12065196E-06
  0.224264458      -2.04904471E-03  0.957494199      0.941008389      0.335207760      -2.42188736E-03  0.285780549       6.67199492E-06
  0.234458551      -2.11525219E-03  0.957620859      0.941183329      0.334656209      -2.00657779E-03  0.285300404       7.37421215E-06
  0.244652733      -2.16741930E-03  0.957785189      0.941410005      0.334018290      -1.52549008E-03  0.284744561       7.91996717E-06
  0.254846990      -2.20344099E-03  0.957987010      0.941688299      0.333286673      -9.71440459E-04  0.284107059       8.54395330E-06
  0.265041292      -2.22095218E-03  0.958225906      0.942017853      0.332453191      -3.35549121E-04  0.283381253       9.32626426E-06
  0.275235593      -2.21726228E-03  0.958501995      0.942398369      0.331507802       3.93127208E-04  0.282559097       9.89995897E-06
  0.285429865      -2.18927371E-03  0.958814919      0.942830026      0.330438435       1.22808258E-03  0.281630874       1.08014792E-05
  0.295624018      -2.13337177E-03  0.959165275      0.943313360      0.329229355       2.18652911E-03  0.280583978       1.19097531E-05
  0.305817962      -2.04527588E-03  0.959554613      0.943850577      0.327861071       3.29015171E-03  0.279402912       1.30776316E-05
  0.316011488      -1.91983546E-03  0.959984839      0.944444478      0.326308459       4.56765993E-03  0.278067857       1.45025551E-05
  0.326204360      -1.75073801E-03  0.960460007      0.945100904      0.324538827       6.05678838E-03  0.276553303       1.65477395E-05
  0.336396307      -1.53008103E-03  0.960985959      0.945827544      0.322509885       7.80931301E-03  0.274826646       1.86208636E-05
  0.346586645      -1.24772848E-03  0.961570323      0.946635783      0.320165694       9.89799853E-03  0.272845805       2.17277557E-05
  0.356774658      -8.90274358E-04  0.962224483      0.947540998      0.317432553       1.24291284E-02  0.270557344       2.54549086E-05
  0.366958946      -4.39326104E-04  0.962964237      0.948565304      0.314212292       1.55857923E-02  0.267894804       2.99625099E-05
  0.377137065       1.33766516E-04  0.963825941      0.949761987      0.310419530       2.01904662E-02  0.264846146       3.84971499E-05
  0.387299746       9.32033930E-04  0.964687824      0.950962961      0.306695223       2.71475054E-02  0.262089312       5.08371741E-05
  0.397434235       2.03104783E-03  0.965296566      0.951819718      0.303761989       3.60489860E-02  0.260351062       6.82007521E-05
  0.407523632       3.48527054E-03  0.965551138      0.952196062      0.301921219       4.67847176E-02  0.260019869       9.43820924E-05
  0.417543113       5.36030158E-03  0.965337992      0.951942086      0.301603287       5.98219857E-02  0.261689067       1.36692077E-04
  0.427456856       7.73026003E-03  0.964395046      0.950712264      0.303760648       7.58103877E-02  0.266496360       2.12168321E-04
  0.437217921       1.06651187E-02  0.962223053      0.947850525      0.310194463       9.53459516E-02  0.276338696       3.54107469E-04
  0.446780443       1.41935814E-02  0.957922876      0.942171812      0.324086189      0.118132785      0.293958724       6.15552068E-04
  0.456144422       1.82216074E-02  0.950124800      0.931851029      0.350120038      0.140661925      0.322004586       1.04435161E-03
  0.465438336       2.24102195E-02  0.937680185      0.915337384      0.391585529      0.152847782      0.359577984       1.62233785E-03
  0.474928796       2.61229333E-02  0.922125578      0.894695699      0.441899329      0.140298054      0.397805452       2.23179162E-03
  0.484786808       2.86871437E-02  0.908782482      0.877102017      0.482818067       9.90313664E-02  0.424006939       2.77737156E-03
  0.494905144       2.98680626E-02  0.902024806      0.868478358      0.501132011       4.46121395E-02  0.433343172       3.34598124E-03
  0.505094886       2.98680626E-02  0.900875330      0.867517352      0.499452025      -8.64579808E-03  0.430217505       4.02395800E-03
  0.515213192       2.86871418E-02  0.902235210      0.870274425      0.482158184      -6.25099540E-02  0.418385714       5.08536398E-03
  0.525071204       2.61229314E-02  0.906161308      0.876894534      0.448582321     -0.113446280      0.397529632       6.58454373E-03
  0.534561634       2.24102195E-02  0.914298773      0.889195859      0.404417932     -0.144367412      0.368007690       7.99925998E-03
  0.543855608       1.82216056E-02  0.925737441      0.905639231      0.361327708     -0.146005794      0.333001375       8.91617872E-03
  0.553219557       1.41935805E-02  0.936796665      0.921270788      0.327540368     -0.127351940      0.299502641       9.40336473E-03
  0.562782109       1.06651178E-02  0.944803774      0.932533860      0.305081487     -0.103229031      0.273986191       9.63942893E-03
  0.572543144       7.73025956E-03  0.949734032      0.939457953      0.291927904      -8.16394016E-02  0.257587671       9.75037739E-03
  0.582456887       5.36030112E-03  0.952601492      0.943478823      0.285046697      -6.42278939E-02  0.248139337       9.80074983E-03
  0.592476368       3.48527008E-03  0.954270840      0.945801675      0.282042623      -5.03715687E-02  0.243222937       9.80846863E-03