 title = "grid"
                                   variables = "x","y","rho","P","u","v","M","S"
 zone n=        3000  e =        5742  et=quadrilateral, f=fepoint
   0.00000000       0.00000000      0.953357637      0.935315669      0.363915026      -3.16110003E-04  0.310516685       5.21540642E-08
   1.00000000       0.00000000      0.945241690      0.932792902      0.313672125       5.61559398E-04  0.266864866       9.26841795E-03
   1.00000000      0.300000012      0.951178730      0.932369828      0.357990444      -4.22431258E-05  0.305593669       4.88683581E-05
   0.00000000      0.300000012      0.953723788      0.935818613      0.362770319      -1.38348905E-05  0.309516042       2.79396772E-08
   1.00000000       1.03448275E-02  0.946643591      0.932811081      0.320037186       6.97528070E-04  0.272479504       7.21310638E-03
   1.00000000       2.06896551E-02  0.948263884      0.932842076      0.327843398       7.73108040E-04  0.279359967       4.85210307E-03
   1.00000000       3.10344826E-02  0.949325800      0.932857096      0.333855510       7.61044328E-04  0.284639865       3.30123305E-03
   1.00000000       4.13793102E-02  0.950036526      0.932860613      0.338775754       6.95038121E-04  0.288942188       2.25728750E-03
   1.00000000       5.17241396E-02  0.950514317      0.932854950      0.342835486       5.95893071E-04  0.292479038       1.54729187E-03
   1.00000000       6.20689653E-02  0.950832665      0.932842374      0.346158296       4.77565976E-04  0.295365006       1.06505863E-03
   1.00000000       7.24137947E-02  0.951040685      0.932824194      0.348842233       3.49741313E-04  0.297690451       7.39311799E-04
   1.00000000       8.27586204E-02  0.951173067      0.932801545      0.350976616       2.19578200E-04  0.299536228       5.20151109E-04
   1.00000000       9.31034461E-02  0.951253891      0.932775617      0.352648735       9.21847313E-05  0.300980240       3.73417512E-04
   1.00000000      0.103448279      0.951299906      0.932746947      0.353940576      -2.84132493E-05  0.302094728       2.74907798E-04
   1.00000000      0.113793105      0.951322496      0.932716310      0.354926676      -1.39236043E-04  0.302944988       2.08811834E-04
   1.00000000      0.124137931      0.951330006      0.932684720      0.355670959      -2.37908753E-04  0.303586662       1.63888559E-04
   1.00000000      0.134482756      0.951327562      0.932652295      0.356228232      -3.22888576E-04  0.304067254       1.32767484E-04
   1.00000000      0.144827589      0.951318324      0.932619989      0.356643587      -3.92948918E-04  0.304425627       1.11723319E-04
   1.00000000      0.155172408      0.951305211      0.932587862      0.356952965      -4.47507569E-04  0.304692924       9.65632498E-05
   1.00000000      0.165517241      0.951290190      0.932556450      0.357184231      -4.86464822E-04  0.304893106       8.50073993E-05
   1.00000000      0.175862074      0.951274157      0.932526410      0.357358783      -5.09955280E-04  0.305044472       7.63572752E-05
   1.00000000      0.186206892      0.951257885      0.932497740      0.357492417      -5.18362445E-04  0.305160612       6.95884228E-05
   1.00000000      0.196551725      0.951241970      0.932471037      0.357596695      -5.12616651E-04  0.305251479       6.43581152E-05
   1.00000000      0.206896558      0.951226473      0.932446301      0.357680172      -4.93810687E-04  0.305324256       6.06700778E-05
   1.00000000      0.217241377      0.951212227      0.932424009      0.357748091      -4.63198608E-04  0.305383563       5.77159226E-05
   1.00000000      0.227586210      0.951199472      0.932404160      0.357804626      -4.22166253E-04  0.305432975       5.51622361E-05
   1.00000000      0.237931028      0.951188564      0.932387114      0.357852340      -3.72467184E-04  0.305474699       5.29438257E-05
   1.00000000      0.248275861      0.951179564      0.932372630      0.357893139      -3.16082063E-04  0.305510432       5.06434590E-05
   1.00000000      0.258620679      0.951172292      0.932361186      0.357928216      -2.55138904E-04  0.305541039       4.90862876E-05
   1.00000000      0.268965513      0.951166332      0.932352841      0.357958019      -1.91970059E-04  0.305566818       4.89186496E-05
   1.00000000      0.279310346      0.951162636      0.932347834      0.357982159      -1.29413587E-04  0.305587649       4.89410013E-05
   1.00000000      0.289655179      0.951161623      0.932346106      0.358001113      -7.07675936E-05  0.305603921       4.85740602E-05
  0.989898980      0.300000012      0.951100588      0.932261705      0.358046234      -5.32373742E-05  0.305646479       4.79239970E-05
  0.979797959      0.300000012      0.950920522      0.932012618      0.358161628      -5.66810522E-05  0.305756897       4.57540154E-05
  0.969696999      0.300000012      0.950749099      0.931775689      0.358273566      -5.99437844E-05  0.305863768       4.39174473E-05
  0.959595978      0.300000012      0.950588644      0.931553662      0.358379185      -6.33799500E-05  0.305964559       4.19188291E-05
  0.949494958      0.300000012      0.950440824      0.931349516      0.358477145      -6.73006725E-05  0.306057930       4.05125320E-05
  0.939393938      0.300000012      0.950307190      0.931165159      0.358566761      -7.19498494E-05  0.306143254       3.93949449E-05
  0.929292917      0.300000012      0.950189173      0.931001961      0.358648062      -7.74733635E-05  0.306220472       3.79681587E-05
  0.919191897      0.300000012      0.950087070      0.930860817      0.358722329      -8.40368884E-05  0.306290656       3.67835164E-05
  0.909090936      0.300000012      0.950000823      0.930741370      0.358790934      -9.16802965E-05  0.306355000       3.55616212E-05
  0.898989916      0.300000012      0.949929774      0.930642843      0.358856440      -1.00540572E-04  0.306415707       3.43825668E-05
  0.888888896      0.300000012      0.949873149      0.930564165      0.358921736      -1.10737303E-04  0.306475252       3.32798809E-05
  0.878787875      0.300000012      0.949829578      0.930503428      0.358990014      -1.22219077E-04  0.306536525       3.22982669E-05
  0.868686855      0.300000012      0.949797332      0.930458307      0.359065115      -1.35041657E-04  0.306602865       3.13408673E-05
  0.858585835      0.300000012      0.949774504      0.930426061      0.359150916      -1.49240106E-04  0.306677788       3.02940607E-05
  0.848484874      0.300000012      0.949759483      0.930404723      0.359251112      -1.64827477E-04  0.306764424       2.95024365E-05
  0.838383853      0.300000012      0.949750125      0.930391073      0.359369785      -1.81775074E-04  0.306866527       2.86437571E-05
  0.828282833      0.300000012      0.949744880      0.930382967      0.359510660      -2.00085604E-04  0.306987315       2.76099890E-05
  0.818181813      0.300000012      0.949742019      0.930378497      0.359677464      -2.19708236E-04  0.307130009       2.70623714E-05
  0.808080792      0.300000012      0.949740112      0.930375159      0.359873444      -2.40585403E-04  0.307297647       2.62837857E-05
  0.797979772      0.300000012      0.949738026      0.930371821      0.360101670      -2.62760645E-04  0.307492763       2.57585198E-05
  0.787878811      0.300000012      0.949735165      0.930367231      0.360364825      -2.86115304E-04  0.307717741       2.50916928E-05
  0.777777791      0.300000012      0.949730873      0.930360734      0.360665351      -3.10550502E-04  0.307974756       2.43894756E-05
  0.767676771      0.300000012      0.949724674      0.930351794      0.361005187      -3.35949182E-04  0.308265477       2.38902867E-05
  0.757575750      0.300000012      0.949716866      0.930340707      0.361385971      -3.62196704E-04  0.308591217       2.35475600E-05
  0.747474730      0.300000012      0.949707985      0.930327952      0.361808777      -3.89092573E-04  0.308952957       2.28974968E-05
  0.737373710      0.300000012      0.949698269      0.930314004      0.362274021      -4.16408322E-04  0.309350997       2.22492963E-05
  0.727272749      0.300000012      0.949688494      0.930300295      0.362781227      -4.43741708E-04  0.309784800       2.19270587E-05
  0.717171729      0.300000012      0.949679554      0.930287898      0.363329440      -4.70827334E-04  0.310253561       2.17221677E-05
  0.707070708      0.300000012      0.949672878      0.930278242      0.363916785      -4.97147732E-04  0.310755700       2.11875886E-05
  0.696969688      0.300000012      0.949669778      0.930273771      0.364540100      -5.22255723E-04  0.311288178       2.09789723E-05
  0.686868668      0.300000012      0.949671805      0.930276036      0.365195423      -5.45525167E-04  0.311847776       2.04313546E-05
  0.676767647      0.300000012      0.949680507      0.930287659      0.365877628      -5.66579227E-04  0.312429845       2.01184303E-05
  0.666666687      0.300000012      0.949697971      0.930311024      0.366580218      -5.84736583E-04  0.313028783       1.94422901E-05
  0.656565666      0.300000012      0.949726105      0.930348814      0.367296219      -5.99426916E-04  0.313638419       1.86134130E-05
  0.646464646      0.300000012      0.949766815      0.930404305      0.368017256      -6.10118441E-04  0.314251542       1.82669610E-05
  0.636363626      0.300000012      0.949822843      0.930480778      0.368734151      -6.16410398E-04  0.314860046       1.78460032E-05
  0.626262605      0.300000012      0.949896336      0.930581212      0.369437128      -6.17893762E-04  0.315455496       1.74306333E-05
  0.616161644      0.300000012      0.949990094      0.930709124      0.370115727      -6.14190823E-04  0.316028804       1.67135149E-05
  0.606060624      0.300000012      0.950106800      0.930868566      0.370759279      -6.04675850E-04  0.316570640       1.60764903E-05
  0.595959604      0.300000012      0.950248778      0.931062818      0.371356040      -5.88967116E-04  0.317070782       1.54823065E-05
  0.585858583      0.300000012      0.950418949      0.931295812      0.371894568      -5.67079929E-04  0.317519248       1.50371343E-05
  0.575757563      0.300000012      0.950619519      0.931570768      0.372363597      -5.39137691E-04  0.317906290       1.48173422E-05
  0.565656543      0.300000012      0.950852334      0.931889832      0.372752875      -5.05486620E-04  0.318223029       1.44168735E-05
  0.555555582      0.300000012      0.951118290      0.932254374      0.373053193      -4.66672762E-04  0.318461657       1.40368938E-05
  0.545454562      0.300000012      0.951417685      0.932664812      0.373257101      -4.23615042E-04  0.318615705       1.35041773E-05
  0.535353541      0.300000012      0.951749623      0.933120012      0.373358250      -3.77432269E-04  0.318679839       1.31651759E-05
  0.525252521      0.300000012      0.952112377      0.933617651      0.373352617      -3.29863251E-04  0.318650752       1.28336251E-05
  0.515151501      0.300000012      0.952503264      0.934153974      0.373238325      -2.82791385E-04  0.318527043       1.24406070E-05
  0.505050480      0.300000012      0.952919006      0.934724450      0.373016566      -2.37625951E-04  0.318310112       1.19898468E-05
  0.494949490      0.300000012      0.953355253      0.935323179      0.372691780      -1.94591106E-04  0.318003863       1.15539879E-05
  0.484848499      0.300000012      0.953807533      0.935943902      0.372269988      -1.53467961E-04  0.317613900       1.10249966E-05
  0.474747479      0.300000012      0.954270661      0.936579943      0.371759534      -1.14485054E-04  0.317147613       1.07064843E-05
  0.464646459      0.300000012      0.954739332      0.937223554      0.371170610      -7.75465887E-05  0.316614181       1.02613121E-05
  0.454545468      0.300000012      0.955208063      0.937867463      0.370514363      -4.24225691E-05  0.316023439       9.91672277E-06
  0.444444448      0.300000012      0.955671787      0.938504636      0.369802743      -9.26277880E-06  0.315385908       9.59821045E-06
  0.434343427      0.300000012      0.956125081      0.939127684      0.369048625       2.11403403E-05  0.314712942       9.31136310E-06
  0.424242437      0.300000012      0.956562519      0.939728856      0.368265957       4.79012851E-05  0.314016849       8.86432827E-06
  0.414141417      0.300000012      0.956978559      0.940300763      0.367469102       7.03575861E-05  0.313310176       8.50111246E-06
  0.404040396      0.300000012      0.957368374      0.940836668      0.366672188       8.82816603E-05  0.312605351       8.09319317E-06
  0.393939406      0.300000012      0.957727730      0.941330671      0.365888447       1.01773250E-04  0.311913848       7.67037272E-06
  0.383838385      0.300000012      0.958053112      0.941777945      0.365129501       1.11125388E-04  0.311245799       7.13951886E-06
  0.373737365      0.300000012      0.958341837      0.942174852      0.364405394       1.16803094E-04  0.310609907       6.66640699E-06
  0.363636374      0.300000012      0.958592236      0.942518950      0.363724232       1.19234443E-04  0.310013145       5.99585474E-06
  0.353535354      0.300000012      0.958803236      0.942809165      0.363092154       1.19083561E-04  0.309460849       5.73322177E-06
  0.343434334      0.300000012      0.958975375      0.943045557      0.362513572       1.16831441E-04  0.308956772       5.16511500E-06
  0.333333343      0.300000012      0.959108829      0.943228543      0.361991107       1.13038703E-04  0.308503002       4.34927642E-06
  0.323232323      0.300000012      0.959204674      0.943360269      0.361525655       1.08107066E-04  0.308100224       4.06801701E-06
  0.313131303      0.300000012      0.959264696      0.943442583      0.361117393       1.02400438E-04  0.307748467       3.78489494E-06
  0.303030312      0.300000012      0.959290802      0.943478227      0.360765249       9.61677288E-05  0.307446778       3.43471766E-06
  0.292929292      0.300000012      0.959285259      0.943470240      0.360466987       8.97981299E-05  0.307192981       3.08826566E-06
  0.282828271      0.300000012      0.959250391      0.943422139      0.360220104       8.33834420E-05  0.306984812       2.95229256E-06
  0.272727281      0.300000012      0.959188640      0.943336725      0.360021383       7.71207342E-05  0.306819469       2.51084566E-06
  0.262626261      0.300000012      0.959102213      0.943217814      0.359867543       7.11297616E-05  0.306693912       2.61887908E-06
  0.252525240      0.300000012      0.958993733      0.943067849      0.359755129       6.54081596E-05  0.306605101       1.98744237E-06
  0.242424250      0.300000012      0.958864748      0.942889988      0.359681010       5.99243649E-05  0.306550264       1.65402889E-06
  0.232323229      0.300000012      0.958717525      0.942687094      0.359641910       5.46723277E-05  0.306526363       1.43237412E-06
  0.222222224      0.300000012      0.958553612      0.942461550      0.359635144       4.95427157E-05  0.306531072       1.49942935E-06
  0.212121218      0.300000012      0.958375156      0.942215502      0.359658062       4.44683392E-05  0.306562096       1.12131238E-06
  0.202020198      0.300000012      0.958183229      0.941951215      0.359708577       3.94230519E-05  0.306617439       9.53674316E-07
  0.191919193      0.300000012      0.957979441      0.941670656      0.359784454       3.43302963E-05  0.306695193       8.43778253E-07
  0.181818187      0.300000012      0.957765162      0.941375375      0.359883606       2.92866043E-05  0.306793481       3.91155481E-07
  0.171717167      0.300000012      0.957541525      0.941067815      0.360004067       2.42384140E-05  0.306910485       5.99771738E-07
  0.161616161      0.300000012      0.957310021      0.940749407      0.360143512       1.93775450E-05  0.307044208       7.00354576E-07
  0.151515156      0.300000012      0.957072079      0.940422356      0.360299408       1.47515157E-05  0.307192355       1.02445483E-06
  0.141414136      0.300000012      0.956829309      0.940088332      0.360469133       1.04007195E-05  0.307352662       9.53674316E-07
  0.131313130      0.300000012      0.956582844      0.939749360      0.360649586       6.50199445E-06  0.307522386       9.89064574E-07
  0.121212125      0.300000012      0.956334412      0.939407766      0.360837609       3.16539649E-06  0.307698667       1.06915832E-06
  0.111111112      0.300000012      0.956085384      0.939065039      0.361030251       2.13362412E-07  0.307879031       7.37607479E-07
  0.101010099      0.300000012      0.955837071      0.938723385      0.361224413      -2.21232904E-06  0.308060616       4.95463610E-07
   9.09090936E-02  0.300000012      0.955590904      0.938384950      0.361417264      -4.26329234E-06  0.308240950       5.34579158E-07
   8.08080807E-02  0.300000012      0.955348194      0.938051343      0.361606449      -6.09342942E-06  0.308417976       5.94183803E-07
   7.07070678E-02  0.300000012      0.955110550      0.937724411      0.361789912      -7.80751088E-06  0.308589876       3.03611159E-07
   6.06060624E-02  0.300000012      0.954878986      0.937406003      0.361966103      -9.44666226E-06  0.308755130       1.49011612E-07
   5.05050495E-02  0.300000012      0.954654694      0.937097609      0.362133473      -1.11161653E-05  0.308912426       7.45058060E-09
   4.04040404E-02  0.300000012      0.954438448      0.936800539      0.362291068      -1.28679958E-05  0.309060842       7.63684511E-08
   3.03030312E-02  0.300000012      0.954231679      0.936516225      0.362437785      -1.46638249E-05  0.309199452      -1.73225999E-07
   2.02020202E-02  0.300000012      0.954034984      0.936246037      0.362572491      -1.64230205E-05  0.309327126      -5.21540642E-08
   1.01010101E-02  0.300000012      0.953849733      0.935991704      0.362693191      -1.74270644E-05  0.309442103       1.19209290E-07
   0.00000000      0.289655179      0.953712761      0.935803235      0.362783790       2.56112884E-07  0.309528291      -2.04890966E-07
   0.00000000      0.279310346      0.953711569      0.935801625      0.362786949       1.34589400E-05  0.309531093      -1.95577741E-07
   0.00000000      0.268965513      0.953713596      0.935804486      0.362775713       2.45294978E-05  0.309521347      -5.96046448E-08
   0.00000000      0.258620679      0.953718364      0.935811162      0.362752259       3.43560860E-05  0.309501022       6.33299351E-08
   0.00000000      0.248275861      0.953725636      0.935821176      0.362717897       4.31768094E-05  0.309471220       3.72529030E-08
   0.00000000      0.237931028      0.953735173      0.935834467      0.362673700       5.05926473E-05  0.309432864       3.07336450E-07
   0.00000000      0.227586210      0.953746796      0.935850203      0.362620950       5.65432965E-05  0.309387118       4.65661287E-08
   0.00000000      0.217241377      0.953759730      0.935868025      0.362561375       6.08311311E-05  0.309335440       8.19563866E-08
   0.00000000      0.206896558      0.953773797      0.935887277      0.362496406       6.35160613E-05  0.309279144       1.86264515E-08
   0.00000000      0.196551725      0.953788579      0.935907781      0.362427920       6.42893719E-05  0.309219718       1.82539225E-07
   0.00000000      0.186206892      0.953803599      0.935928404      0.362358004       6.29749338E-05  0.309159070       2.12341547E-07
   0.00000000      0.175862074      0.953818500      0.935948610      0.362288594       5.94454068E-05  0.309098959      -9.12696123E-08
   0.00000000      0.165517241      0.953832388      0.935967743      0.362222254       5.35069812E-05  0.309041440      -1.49011612E-08
   0.00000000      0.155172408      0.953844607      0.935984731      0.362161666       4.50433981E-05  0.308988929       2.08616257E-07
   0.00000000      0.144827589      0.953854978      0.935998976      0.362109363       3.38742720E-05  0.308943599       1.58324838E-07
   0.00000000      0.134482756      0.953862488      0.936009169      0.362068415       1.99090282E-05  0.308908224       5.21540642E-08
   0.00000000      0.124137931      0.953866303      0.936014473      0.362041712       2.97475253E-06  0.308885157       1.67638063E-07
   0.00000000      0.113793105      0.953865767      0.936013758      0.362032652      -1.70395178E-05  0.308877468       1.32247806E-07
   0.00000000      0.103448279      0.953859985      0.936005652      0.362044662      -4.04728489E-05  0.308888137      -5.77419996E-08
   0.00000000       9.31034461E-02  0.953847945      0.935989022      0.362081409      -6.72578099E-05  0.308920264      -9.87201929E-08
   0.00000000       8.27586204E-02  0.953828633      0.935962617      0.362146765      -9.76678857E-05  0.308977276       4.84287739E-08
   0.00000000       7.24137947E-02  0.953801155      0.935924947      0.362244695      -1.31749417E-04  0.309062630       7.45058060E-08
   0.00000000       6.20689653E-02  0.953764439      0.935874522      0.362379551      -1.69476159E-04  0.309180051       1.09896064E-07
   0.00000000       5.17241396E-02  0.953717470      0.935809910      0.362555951      -2.10572020E-04  0.309333652       5.58793545E-09
   0.00000000       4.13793102E-02  0.953658879      0.935729563      0.362778783      -2.53860693E-04  0.309527546       1.60187483E-07
   0.00000000       3.10344826E-02  0.953587830      0.935631871      0.363053262      -2.96467711E-04  0.309766412       7.82310963E-08
   0.00000000       2.06896551E-02  0.953503430      0.935515940      0.363385350      -3.31564923E-04  0.310055256       6.33299351E-08
   0.00000000       1.03448275E-02  0.953405559      0.935381472      0.363781631      -3.42839921E-04  0.310399771       6.51925802E-08
   1.01942774E-02  -1.06002917E-05  0.953380346      0.935346901      0.363904655      -5.51354955E-04  0.310506612       5.02914190E-08
   2.03885511E-02  -4.05888240E-05  0.953435421      0.935422659      0.363765419      -1.14554737E-03  0.310385376       2.25380063E-07
   3.05827484E-02  -8.74972393E-05  0.953535795      0.935560644      0.363481045      -1.69117888E-03  0.310138017       3.39001417E-07
   4.07768898E-02  -1.49138228E-04  0.953661203      0.935732961      0.363098770      -2.17163563E-03  0.309805870       4.09781933E-07
   5.09709269E-02  -2.23550553E-04  0.953800499      0.935924351      0.362646997      -2.58849538E-03  0.309413701       4.11644578E-07
   6.11648858E-02  -3.08956922E-04  0.953945875      0.936124384      0.362144500      -2.94552487E-03  0.308977842       7.35744834E-07
   7.13587478E-02  -4.03728453E-04  0.954091072      0.936324239      0.361604750      -3.24663799E-03  0.308510125       1.14738941E-06
   8.15525427E-02  -5.06357115E-04  0.954231441      0.936517358      0.361037999      -3.49537283E-03  0.308019489       1.38580799E-06
   9.17462707E-02  -6.15430705E-04  0.954363167      0.936698556      0.360451549      -3.69468005E-03  0.307512403       1.62422657E-06
  0.101939946      -7.29613879E-04  0.954483271      0.936863840      0.359851152      -3.84716759E-03  0.306993812       1.87195837E-06
  0.112133577      -8.47629446E-04  0.954589784      0.937010348      0.359240055      -3.95464990E-03  0.306466699       2.06194818E-06
  0.122327171      -9.68243345E-04  0.954681396      0.937136233      0.358620167      -4.01887903E-03  0.305932641       2.05449760E-06
  0.132520750      -1.09024998E-03  0.954757690      0.937241197      0.357991934      -4.04075161E-03  0.305392087       2.14017928E-06
  0.142714337      -1.21245917E-03  0.954819143      0.937325716      0.357354373      -4.02088184E-03  0.304844141       2.19419599E-06
  0.152907923      -1.33368257E-03  0.954866648      0.937391520      0.356705487      -3.95955844E-03  0.304287016       2.76044011E-06
  0.163101539      -1.45272142E-03  0.954902589      0.937441170      0.356041968      -3.85652040E-03  0.303717732       3.07895243E-06
  0.173295200      -1.56835280E-03  0.954929173      0.937478185      0.355359823      -3.71103757E-03  0.303132832       3.52226198E-06
  0.183488905      -1.67931605E-03  0.954950035      0.937506795      0.354653746      -3.52183497E-03  0.302527636       3.47010791E-06
  0.193682685      -1.78429752E-03  0.954967976      0.937531710      0.353918165      -3.28719430E-03  0.301897109       3.71970236E-06
  0.203876525      -1.88191328E-03  0.954987228      0.937558591      0.353146493      -3.00461100E-03  0.301235497       4.23565507E-06
  0.214070454      -1.97069068E-03  0.955012143      0.937592804      0.352331519      -2.67116865E-03  0.300536543       4.17418778E-06
  0.224264458      -2.04904471E-03  0.955046892      0.937640905      0.351465136      -2.28285813E-03  0.299793005       4.55975533E-06
  0.234458551      -2.11525219E-03  0.955096066      0.937708676      0.350538641      -1.83494040E-03  0.298997372       4.71994281E-06
  0.244652733      -2.16741930E-03  0.955164254      0.937802851      0.349542290      -1.32147106E-03  0.298141271       5.17815351E-06
  0.254846990      -2.20344099E-03  0.955256462      0.937930167      0.348465055      -7.35090580E-04  0.297215134       5.78165054E-06
  0.265041292      -2.22095218E-03  0.955377400      0.938097119      0.347294509      -6.68301363E-05  0.296208501       6.56954944E-06
  0.275235593      -2.21726228E-03  0.955532491      0.938311040      0.346016109       6.94576651E-04  0.295109034       7.31274486E-06
  0.285429865      -2.18927371E-03  0.955727160      0.938579321      0.344613194       1.56296440E-03  0.293902874       8.01868737E-06
  0.295624018      -2.13337177E-03  0.955967009      0.938909829      0.343065530       2.55597616E-03  0.292573273       8.82707536E-06
  0.305817962      -2.04527588E-03  0.956258476      0.939311445      0.341348946       3.69606516E-03  0.291100413       9.63360071E-06
  0.316011488      -1.91983546E-03  0.956608295      0.939793825      0.339433998       5.01257507E-03  0.289460599       1.10249966E-05
  0.326204360      -1.75073801E-03  0.957024813      0.940368116      0.337283820       6.54427940E-03  0.287624508       1.24610960E-05
  0.336396307      -1.53008103E-03  0.957517326      0.941047609      0.334852308       8.34413245E-03  0.285556197       1.45398080E-05
  0.346586645      -1.24772848E-03  0.958097160      0.941848099      0.332080126       1.04867220E-02  0.283210695       1.72406435E-05
  0.356774658      -8.90274358E-04  0.958777905      0.942788720      0.328890175       1.30810272E-02  0.280531675       2.11130828E-05
  0.366958946      -4.39326104E-04  0.959577799      0.943895102      0.325180382       1.63145419E-02  0.277449846       2.63638794E-05
  0.377137065       1.33766516E-04  0.960536659      0.945224047      0.320862263       2.10319944E-02  0.273952484       3.50698829E-05
  0.387299746       9.32033930E-04  0.961523950      0.946596205      0.316599339       2.81631593E-02  0.270741731       4.74378467E-05
  0.397434235       2.03104783E-03  0.962270260      0.947641134      0.313140482       3.72815430E-02  0.268570393       6.45313412E-05
  0.407523632       3.48527054E-03  0.962670088      0.948216677      0.310792029       4.82629016E-02  0.267833680       9.00831074E-05
  0.417543113       5.36030158E-03  0.962606430      0.948169053      0.309989750       6.15754239E-02  0.269133657       1.32454559E-04
  0.427456856       7.73026003E-03  0.961807668      0.947139323      0.311699808       7.78735727E-02  0.273625970       2.08022073E-04
  0.437217921       1.06651187E-02  0.959760249      0.944452822      0.317752779       9.77484360E-02  0.283237517       3.50968912E-04
  0.446780443       1.41935814E-02  0.955541372      0.938893437      0.331381440      0.120880120      0.300751328       6.14838675E-04
  0.456144422       1.82216074E-02  0.947752297      0.928597987      0.357333958      0.143678084      0.328840613       1.04754418E-03
  0.465438336       2.24102195E-02  0.935243547      0.912016451      0.398905516      0.155881017      0.366543621       1.63037330E-03
  0.474928796       2.61229333E-02  0.919662058      0.891364157      0.449293554      0.142888308      0.404738426       2.24638358E-03
  0.484786808       2.86871437E-02  0.906538308      0.874097109      0.489828050      0.100742541      0.430416822       2.80699506E-03
  0.494905144       2.98680626E-02  0.900327027      0.866241574      0.507105112       4.53987792E-02  0.438680202       3.40465084E-03
  0.505094886       2.98680626E-02  0.899893224      0.866275668      0.504005075      -8.50887317E-03  0.434210390       4.11872938E-03
  0.515213192       2.86871418E-02  0.901952922      0.870015502      0.485223681      -6.27265051E-02  0.421022534       5.22584468E-03
  0.525071204       2.61229314E-02  0.906497419      0.877521932      0.450256377     -0.113732308      0.398915589       6.78057596E-03
  0.534561634       2.24102195E-02  0.915133953      0.890558600      0.404931962     -0.144463032      0.368336201       8.25235620E-03
  0.543855608       1.82216056E-02  0.926925242      0.907543600      0.360945731     -0.145785421      0.332492143       9.22163390E-03
  0.553219557       1.41935805E-02  0.938201845      0.923526883      0.326453358     -0.126851439      0.298343271       9.75087844E-03
  0.562782109       1.06651178E-02  0.946338654      0.935004294      0.303386122     -0.102555037      0.272297055       1.00125298E-02
  0.572543144       7.73025956E-03  0.951359570      0.942068696      0.289648116      -8.08808431E-02  0.255412370       1.01314252E-02
  0.582456887       5.36030112E-03  0.954297841      0.946188748      0.282173425      -6.34438097E-02  0.245478883       1.01780659E-02
  0.592476368       3.48527008E-03  0.956021965      0.948580682      0.278583467      -4.96151745E-02  0.240087092       1.01757115E-02