 title = "grid"
                                   variables = "x","y","rho","P","u","v","M","S"
 zone n=        3000  e =        5742  et=quadrilateral, f=fepoint
   0.00000000       0.00000000      0.955570042      0.938355863      0.355108500      -3.17327038E-04  0.302861959       1.02445483E-07
   1.00000000       0.00000000      0.945033133      0.932720006      0.324975282       5.54313068E-04  0.276461601       9.49914008E-03
   1.00000000      0.300000012      0.951142192      0.932301164      0.370914847      -6.02023829E-05  0.316632032       2.90349126E-05
   0.00000000      0.300000012      0.955278754      0.937955439      0.356581271      -6.60783053E-06  0.304136425       1.00582838E-07
   1.00000000       1.03448275E-02  0.946469128      0.932747662      0.331483841       6.81717414E-04  0.282208711       7.40313902E-03
   1.00000000       2.06896551E-02  0.948125660      0.932781160      0.339479744       7.49204948E-04  0.289263725       4.99087013E-03
   1.00000000       3.10344826E-02  0.949217319      0.932797492      0.345653206       7.29961612E-04  0.294690877       3.39735486E-03
   1.00000000       4.13793102E-02  0.949950159      0.932801485      0.350710630       6.57574099E-04  0.299117267       2.32122466E-03
   1.00000000       5.17241396E-02  0.950443268      0.932795823      0.354880810       5.52898156E-04  0.302753240       1.58854388E-03
   1.00000000       6.20689653E-02  0.950771868      0.932782948      0.358296603       4.29923704E-04  0.305722088       1.09079853E-03
   1.00000000       7.24137947E-02  0.950987160      0.932764173      0.361063123       2.98324041E-04  0.308120549       7.53734261E-04
   1.00000000       8.27586204E-02  0.951124609      0.932740927      0.363270581       1.65304155E-04  0.310030520       5.26487827E-04
   1.00000000       9.31034461E-02  0.951208651      0.932713926      0.365004689       3.61272760E-05  0.311528713       3.73832881E-04
   1.00000000      0.103448279      0.951256752      0.932684243      0.366350204      -8.52276280E-05  0.312689990       2.71247700E-04
   1.00000000      0.113793105      0.951280832      0.932652533      0.367384464      -1.95853849E-04  0.313582093       2.01778486E-04
   1.00000000      0.124137931      0.951288998      0.932619333      0.368173540      -2.93638179E-04  0.314262629       1.54137611E-04
   1.00000000      0.134482756      0.951286733      0.932585478      0.368773252      -3.77045129E-04  0.314779907       1.21163204E-04
   1.00000000      0.144827589      0.951277316      0.932551444      0.369229317      -4.44995210E-04  0.315173477       9.85618681E-05
   1.00000000      0.155172408      0.951264143      0.932517648      0.369578034      -4.97043016E-04  0.315474719       8.17347318E-05
   1.00000000      0.165517241      0.951248348      0.932484686      0.369847238      -5.33219019E-04  0.315707535       6.95697963E-05
   1.00000000      0.175862074      0.951231420      0.932452917      0.370058089      -5.53642109E-04  0.315890104       6.04689121E-05
   1.00000000      0.186206892      0.951214135      0.932422698      0.370226234      -5.58926084E-04  0.316035897       5.35137951E-05
   1.00000000      0.196551725      0.951197207      0.932394266      0.370363027      -5.49898599E-04  0.316154629       4.79184091E-05
   1.00000000      0.206896558      0.951180995      0.932368040      0.370476335      -5.27765893E-04  0.316253126       4.35896218E-05
   1.00000000      0.217241377      0.951166213      0.932344079      0.370571733      -4.93683270E-04  0.316336125       3.96519899E-05
   1.00000000      0.227586210      0.951152742      0.932323039      0.370652944      -4.49277664E-04  0.316406727       3.69306654E-05
   1.00000000      0.237931028      0.951140702      0.932304680      0.370722383      -3.96357791E-04  0.316467017       3.50195915E-05
   1.00000000      0.248275861      0.951131046      0.932289660      0.370781898      -3.36922327E-04  0.316518754       3.31215560E-05
   1.00000000      0.258620679      0.951123536      0.932277620      0.370832026      -2.73140293E-04  0.316562265       3.12216580E-05
   1.00000000      0.268965513      0.951117754      0.932269037      0.370873123      -2.07757868E-04  0.316597849       3.05622816E-05
   1.00000000      0.279310346      0.951114833      0.932264149      0.370904565      -1.43956044E-04  0.316624969       2.95918435E-05
   1.00000000      0.289655179      0.951114833      0.932263494      0.370925993      -8.60878499E-05  0.316643357       2.88523734E-05
  0.989898980      0.300000012      0.951020062      0.932133436      0.370980740      -6.98053700E-05  0.316696435       2.88933516E-05
  0.979797959      0.300000012      0.950741470      0.931750357      0.371118695      -7.48202510E-05  0.316832900       2.79676169E-05
  0.969696999      0.300000012      0.950479507      0.931390226      0.371242255      -7.90363556E-05  0.316955954       2.72039324E-05
  0.959595978      0.300000012      0.950237513      0.931057513      0.371346831      -8.29860146E-05  0.317061543       2.64495611E-05
  0.949494958      0.300000012      0.950018346      0.930756152      0.371429294      -8.71299053E-05  0.317146689       2.56337225E-05
  0.939393938      0.300000012      0.949824154      0.930489302      0.371487677      -9.18043152E-05  0.317209631       2.50861049E-05
  0.929292917      0.300000012      0.949657142      0.930259824      0.371520698      -9.70507972E-05  0.317249030       2.45906413E-05
  0.919191897      0.300000012      0.949518442      0.930069208      0.371528298      -1.03102488E-04  0.317264855       2.41845846E-05
  0.909090936      0.300000012      0.949409068      0.929918885      0.371511102      -1.09994682E-04  0.317257553       2.38399953E-05
  0.898989916      0.300000012      0.949329078      0.929808736      0.371470392      -1.17830816E-04  0.317228228       2.33408064E-05
  0.888888896      0.300000012      0.949278116      0.929738760      0.371408194      -1.26712184E-04  0.317178488       2.31992453E-05
  0.878787875      0.300000012      0.949255407      0.929707170      0.371326923      -1.36592978E-04  0.317110687       2.27298588E-05
  0.868686855      0.300000012      0.949259818      0.929713070      0.371229738      -1.47489525E-04  0.317027420       2.25789845E-05
  0.858585835      0.300000012      0.949289739      0.929754019      0.371120036      -1.59443938E-04  0.316931754       2.25137919E-05
  0.848484874      0.300000012      0.949343264      0.929827273      0.371001273      -1.72420041E-04  0.316826850       2.23517418E-05
  0.838383853      0.300000012      0.949418485      0.929930270      0.370877415      -1.86362857E-04  0.316716015       2.21766531E-05
  0.828282833      0.300000012      0.949513257      0.930059850      0.370752305      -2.01256844E-04  0.316602975       2.17333436E-05
  0.818181813      0.300000012      0.949625254      0.930213213      0.370630234      -2.17150038E-04  0.316491306       2.15470791E-05
  0.808080792      0.300000012      0.949752331      0.930387259      0.370515078      -2.33927931E-04  0.316384524       2.12527812E-05
  0.797979772      0.300000012      0.949892282      0.930578649      0.370410860      -2.51550926E-04  0.316286325       2.06641853E-05
  0.787878811      0.300000012      0.950042665      0.930784643      0.370321721      -2.70049903E-04  0.316200256       2.03736126E-05
  0.777777791      0.300000012      0.950201571      0.931002438      0.370251536      -2.89324351E-04  0.316129833       2.02152878E-05
  0.767676771      0.300000012      0.950367272      0.931229055      0.370204031      -3.09266674E-04  0.316078335       1.94404274E-05
  0.757575750      0.300000012      0.950537622      0.931462348      0.370182723      -3.29874689E-04  0.316048950       1.90511346E-05
  0.747474730      0.300000012      0.950710952      0.931699693      0.370190918      -3.51043826E-04  0.316044450       1.85556710E-05
  0.737373710      0.300000012      0.950885594      0.931939065      0.370231330      -3.72464536E-04  0.316067427       1.83172524E-05
  0.727272749      0.300000012      0.951060534      0.932178617      0.370306164      -3.93866212E-04  0.316119790       1.77659094E-05
  0.717171729      0.300000012      0.951234758      0.932416737      0.370416760      -4.15018090E-04  0.316202819       1.67395920E-05
  0.707070708      0.300000012      0.951406777      0.932652712      0.370563924      -4.35602618E-04  0.316317052       1.66557729E-05
  0.696969688      0.300000012      0.951576710      0.932885468      0.370747060      -4.55135480E-04  0.316462129       1.60913914E-05
  0.686868668      0.300000012      0.951744080      0.933114767      0.370964676      -4.73137334E-04  0.316636860       1.56704336E-05
  0.676767647      0.300000012      0.951909244      0.933341265      0.371214062      -4.89163562E-04  0.316838771       1.54413283E-05
  0.666666687      0.300000012      0.952072859      0.933565378      0.371490926      -5.02690033E-04  0.317064315       1.48899853E-05
  0.656565666      0.300000012      0.952235758      0.933788598      0.371789783      -5.13115257E-04  0.317308575       1.44857913E-05
  0.646464646      0.300000012      0.952399790      0.934013128      0.372103810      -5.20007743E-04  0.317565739       1.37891620E-05
  0.636363626      0.300000012      0.952566385      0.934241235      0.372425139      -5.22837800E-04  0.317828983       1.31111592E-05
  0.626262605      0.300000012      0.952737868      0.934476495      0.372744352      -5.21100941E-04  0.318089992       1.28764659E-05
  0.616161644      0.300000012      0.952917159      0.934722364      0.373051345      -5.14454441E-04  0.318340033       1.24592334E-05
  0.606060624      0.300000012      0.953107357      0.934983373      0.373334795      -5.02248760E-04  0.318569243       1.23046339E-05
  0.595959604      0.300000012      0.953312159      0.935264409      0.373582363      -4.84182994E-04  0.318766803       1.20252371E-05
  0.585858583      0.300000012      0.953534782      0.935570002      0.373781919      -4.60241805E-04  0.318922192       1.18184835E-05
  0.575757563      0.300000012      0.953778446      0.935904443      0.373921067      -4.30619344E-04  0.319024593       1.15577132E-05
  0.565656543      0.300000012      0.954045951      0.936271608      0.373988748      -3.95766081E-04  0.319064528       1.11293048E-05
  0.555555582      0.300000012      0.954339087      0.936674178      0.373974919      -3.56478180E-04  0.319033116       1.09318644E-05
  0.545454562      0.300000012      0.954659283      0.937114060      0.373871565      -3.13712982E-04  0.318923533       1.08368695E-05
  0.535353541      0.300000012      0.955006897      0.937591612      0.373672605      -2.68715987E-04  0.318730563       1.06357038E-05
  0.525252521      0.300000012      0.955381215      0.938105881      0.373374224      -2.23208335E-04  0.318451136       1.03097409E-05
  0.515151501      0.300000012      0.955780923      0.938655198      0.372974783      -1.78463262E-04  0.318083882       1.00973994E-05
  0.505050480      0.300000012      0.956203699      0.939236224      0.372475237      -1.35312614E-04  0.317629755       9.81055200E-06
  0.494949490      0.300000012      0.956646681      0.939845145      0.371878862      -9.37180303E-05  0.317091882       9.48458910E-06
  0.484848499      0.300000012      0.957105875      0.940476477      0.371190995      -5.36697880E-05  0.316475034       9.08784568E-06
  0.474747479      0.300000012      0.957576692      0.941124022      0.370419353      -1.55064299E-05  0.315786093       8.89226794E-06
  0.464646459      0.300000012      0.958054543      0.941781282      0.369573146       2.12794530E-05  0.315033317       8.60728323E-06
  0.454545468      0.300000012      0.958534777      0.942441881      0.368662119       5.69654403E-05  0.314225286       8.15093517E-06
  0.444444448      0.300000012      0.959012210      0.943098843      0.367697269       9.08169968E-05  0.313371748       7.85104930E-06
  0.434343427      0.300000012      0.959481478      0.943744719      0.366691262       1.21643614E-04  0.312483847       7.63498247E-06
  0.424242437      0.300000012      0.959936798      0.944371343      0.365658343       1.48284293E-04  0.311574131       7.14138150E-06
  0.414141417      0.300000012      0.960372150      0.944970548      0.364613771       1.70148633E-04  0.310656011       6.67385757E-06
  0.404040396      0.300000012      0.960782230      0.945534945      0.363572568       1.86989011E-04  0.309742510       6.04428351E-06
  0.393939406      0.300000012      0.961162090      0.946057856      0.362548798       1.98997746E-04  0.308846027       5.58979809E-06
  0.383838385      0.300000012      0.961507559      0.946533144      0.361555248       2.06604818E-04  0.307977617       4.66406345E-06
  0.373737365      0.300000012      0.961815059      0.946956456      0.360602736       2.10274506E-04  0.307146698       4.15183604E-06
  0.363636374      0.300000012      0.962081969      0.947324038      0.359700769       2.10507438E-04  0.306361496       3.83518636E-06
  0.353535354      0.300000012      0.962306321      0.947633088      0.358856618       2.08085359E-04  0.305628300       3.52971256E-06
  0.343434334      0.300000012      0.962487161      0.947882116      0.358075559       2.03592572E-04  0.304951668       3.24659050E-06
  0.333333343      0.300000012      0.962623894      0.948070288      0.357361168       1.97540241E-04  0.304334670       2.89827585E-06
  0.323232323      0.300000012      0.962716579      0.948198080      0.356715798       1.90456994E-04  0.303779215       2.87033617E-06
  0.313131303      0.300000012      0.962766171      0.948266089      0.356140077       1.82598422E-04  0.303285897       2.47918069E-06
  0.303030312      0.300000012      0.962773621      0.948276341      0.355633676       1.74337678E-04  0.302854151       2.47545540E-06
  0.292929292      0.300000012      0.962740600      0.948230803      0.355194926       1.66045269E-04  0.302482635       2.45310366E-06
  0.282828271      0.300000012      0.962668955      0.948132157      0.354821682       1.57769697E-04  0.302169234       2.55368650E-06
  0.272727281      0.300000012      0.962561309      0.947983205      0.354511052       1.49699670E-04  0.301911563       2.02096999E-06
  0.262626261      0.300000012      0.962419331      0.947787583      0.354259759       1.42023957E-04  0.301706403       2.12900341E-06
  0.252525240      0.300000012      0.962246120      0.947548628      0.354064018       1.34650254E-04  0.301550537       1.98185444E-06
  0.242424250      0.300000012      0.962044179      0.947269976      0.353919834       1.27670050E-04  0.301440477       1.74902380E-06
  0.232323229      0.300000012      0.961816132      0.946955264      0.353823304       1.21015073E-04  0.301372558       1.34855509E-06
  0.222222224      0.300000012      0.961564839      0.946608603      0.353770375       1.14634087E-04  0.301343322       1.00024045E-06
  0.212121218      0.300000012      0.961293042      0.946233809      0.353757024       1.08484499E-04  0.301349014       8.04662704E-07
  0.202020198      0.300000012      0.961003602      0.945834875      0.353779376       1.02519116E-04  0.301386207       6.81728125E-07
  0.191919193      0.300000012      0.960699379      0.945415556      0.353833705       9.66316366E-05  0.301451594       5.04776835E-07
  0.181818187      0.300000012      0.960383177      0.944979906      0.353916049       9.07747308E-05  0.301541626       5.10364771E-07
  0.171717167      0.300000012      0.960057735      0.944531560      0.354022950       8.48828640E-05  0.301653147       4.41446900E-07
  0.161616161      0.300000012      0.959725678      0.944074452      0.354150653       7.91046114E-05  0.301782787       6.68689609E-07
  0.151515156      0.300000012      0.959390104      0.943612218      0.354295701       7.32655899E-05  0.301927537       5.06639481E-07
  0.141414136      0.300000012      0.959053218      0.943148434      0.354454905       6.73280374E-05  0.302084416       5.62518835E-07
  0.131313130      0.300000012      0.958717585      0.942686379      0.354624569       6.13796583E-05  0.302250147       6.35161996E-07
  0.121212125      0.300000012      0.958385408      0.942229092      0.354801714       5.54465914E-05  0.302422106       5.30853868E-07
  0.111111112      0.300000012      0.958059013      0.941779852      0.354983062       4.94971937E-05  0.302597314       5.56930900E-07
  0.101010099      0.300000012      0.957740247      0.941341043      0.355165869       4.36202899E-05  0.302773327       3.76254320E-07
   9.09090936E-02  0.300000012      0.957430780      0.940915048      0.355347216       3.78238328E-05  0.302947521       1.58324838E-07
   8.08080807E-02  0.300000012      0.957132101      0.940504134      0.355524689       3.21262414E-05  0.303117722       1.26659870E-07
   7.07070678E-02  0.300000012      0.956845462      0.940109789      0.355695873       2.64461178E-05  0.303281844       1.49011612E-07
   6.06060624E-02  0.300000012      0.956571758      0.939733267      0.355858862       2.09065875E-05  0.303438187       2.23517418E-08
   5.05050495E-02  0.300000012      0.956311882      0.939375699      0.356012046       1.53763085E-05  0.303585351      -1.43423676E-07
   4.04040404E-02  0.300000012      0.956066132      0.939037621      0.356154352       9.79373453E-06  0.303722322      -2.40281224E-07
   3.03030312E-02  0.300000012      0.955834806      0.938719690      0.356285244       3.98868087E-06  0.303848624      -1.37835741E-07
   2.02020202E-02  0.300000012      0.955617905      0.938421547      0.356404543      -1.97637564E-06  0.303964168      -2.23517418E-08
   1.01010101E-02  0.300000012      0.955415785      0.938143671      0.356512010      -7.70931638E-06  0.304068685      -2.04890966E-08
   0.00000000      0.289655179      0.955268383      0.937941134      0.356586367       1.98033613E-05  0.304141462      -3.72529030E-09
   0.00000000      0.279310346      0.955272615      0.937947035      0.356568128       4.61199379E-05  0.304125637       1.17346644E-07
   0.00000000      0.268965513      0.955284595      0.937963426      0.356519103       6.91246387E-05  0.304083079       7.45058060E-09
   0.00000000      0.258620679      0.955303013      0.937988818      0.356442630       9.00798987E-05  0.304016680       1.45286322E-07
   0.00000000      0.248275861      0.955327332      0.938022375      0.356341183       1.08997927E-04  0.303928554       2.81259418E-07
   0.00000000      0.237931028      0.955357134      0.938063264      0.356217086       1.25736406E-04  0.303820878       1.82539225E-07
   0.00000000      0.227586210      0.955392063      0.938111067      0.356072634       1.40142132E-04  0.303695470      -5.96046448E-08
   0.00000000      0.217241377      0.955430686      0.938164175      0.355910778       1.51822795E-04  0.303554952      -1.49011612E-08
   0.00000000      0.206896558      0.955472767      0.938222170      0.355734140       1.60738797E-04  0.303401649       1.63912773E-07
   0.00000000      0.196551725      0.955517590      0.938283861      0.355546027       1.66682337E-04  0.303238302       2.06753612E-07
   0.00000000      0.186206892      0.955564260      0.938347936      0.355349749       1.69382940E-04  0.303067982       8.19563866E-08
   0.00000000      0.175862074      0.955611765      0.938413262      0.355149090       1.68596773E-04  0.302893847       1.09896064E-07
   0.00000000      0.165517241      0.955659211      0.938478410      0.354947895       1.64250043E-04  0.302719206       4.28408384E-08
   0.00000000      0.155172408      0.955705464      0.938542128      0.354750425       1.56039605E-04  0.302547842       1.63912773E-07
   0.00000000      0.144827589      0.955749810      0.938602984      0.354560643       1.43949583E-04  0.302383214       5.77419996E-08
   0.00000000      0.134482756      0.955790997      0.938659430      0.354383320       1.27765423E-04  0.302229434      -1.19209290E-07
   0.00000000      0.124137931      0.955827773      0.938710272      0.354222655       1.07429805E-04  0.302090049       1.35973096E-07
   0.00000000      0.113793105      0.955859363      0.938753426      0.354083389       8.28221309E-05  0.301969290      -1.52736902E-07
   0.00000000      0.103448279      0.955884159      0.938787699      0.353970617       5.38628483E-05  0.301871508       2.79396772E-08
   0.00000000       9.31034461E-02  0.955901325      0.938811362      0.353888988       2.03855689E-05  0.301800787       1.41561031E-07
   0.00000000       8.27586204E-02  0.955909491      0.938822687      0.353843600      -1.75393252E-05  0.301761568       2.45869160E-07
   0.00000000       7.24137947E-02  0.955907643      0.938820004      0.353839368      -5.99811610E-05  0.301758111       2.42143869E-08
   0.00000000       6.20689653E-02  0.955894530      0.938801885      0.353881508      -1.06825573E-04  0.301794857      -6.89178705E-08
   0.00000000       5.17241396E-02  0.955868423      0.938766241      0.353975713      -1.57617120E-04  0.301876873       2.49594450E-07
   0.00000000       4.13793102E-02  0.955828667      0.938711464      0.354127020      -2.11160732E-04  0.302008450       1.39698386E-07
   0.00000000       3.10344826E-02  0.955774009      0.938636243      0.354341090      -2.64604227E-04  0.302194506       7.26431608E-08
   0.00000000       2.06896551E-02  0.955703557      0.938539445      0.354624033      -3.11284995E-04  0.302440315       1.15483999E-07
   0.00000000       1.03448275E-02  0.955617607      0.938421190      0.354981542      -3.35435470E-04  0.302750677       4.65661287E-08
   1.01942774E-02  -1.06002917E-05  0.955608606      0.938408792      0.355084181      -5.40769310E-04  0.302839011      -2.23517418E-08
   2.03885511E-02  -4.05888240E-05  0.955687702      0.938517511      0.354941905      -1.11207517E-03  0.302713811      -5.40167093E-08
   3.05827484E-02  -8.74972393E-05  0.955783069      0.938648939      0.354697853      -1.63515739E-03  0.302501261       2.73808837E-07
   4.07768898E-02  -1.49138228E-04  0.955879390      0.938781559      0.354392976      -2.09522177E-03  0.302237242       5.19677997E-07
   5.09709269E-02  -2.23550553E-04  0.955969870      0.938906133      0.354049683      -2.49407860E-03  0.301940918       6.33299351E-07
   6.11648858E-02  -3.08956922E-04  0.956050873      0.939017832      0.353681117      -2.83559109E-03  0.301623672       9.66712832E-07
   7.13587478E-02  -4.03728453E-04  0.956120670      0.939113915      0.353295237      -3.12345172E-03  0.301292241       1.15670264E-06
   8.15525427E-02  -5.06357115E-04  0.956178427      0.939193308      0.352896661      -3.36134061E-03  0.300950617       1.07288361E-06
   9.17462707E-02  -6.15430705E-04  0.956223965      0.939256430      0.352488101      -3.55211459E-03  0.300600857       1.63167715E-06
  0.101939946      -7.29613879E-04  0.956258535      0.939304173      0.352070063      -3.69822583E-03  0.300243467       1.85705721E-06
  0.112133577      -8.47629446E-04  0.956283569      0.939338923      0.351642281      -3.80148576E-03  0.299878031       2.18115747E-06
  0.122327171      -9.68243345E-04  0.956300914      0.939363122      0.351203233      -3.86353093E-03  0.299503058       2.57790089E-06
  0.132520750      -1.09024998E-03  0.956313074      0.939379990      0.350750625      -3.88513203E-03  0.299116552       2.70269811E-06
  0.142714337      -1.21245917E-03  0.956322491      0.939393342      0.350281477      -3.86669836E-03  0.298715711       3.13483179E-06
  0.152907923      -1.33368257E-03  0.956332624      0.939407468      0.349792331      -3.80839384E-03  0.298297405       3.31923366E-06
  0.163101539      -1.45272142E-03  0.956346512      0.939426482      0.349278957      -3.70975886E-03  0.297857910       3.21120024E-06
  0.173295200      -1.56835280E-03  0.956367195      0.939455092      0.348736793      -3.56977270E-03  0.297393054       3.43099236E-06
  0.183488905      -1.67931605E-03  0.956397951      0.939497769      0.348161012      -3.38708446E-03  0.296898574       3.86312604E-06
  0.193682685      -1.78429752E-03  0.956442535      0.939559579      0.347546190      -3.15981312E-03  0.296369672       4.39397991E-06
  0.203876525      -1.88191328E-03  0.956504166      0.939644635      0.346886277      -2.88525689E-03  0.295801044       4.62308526E-06
  0.214070454      -1.97069068E-03  0.956586063      0.939757466      0.346175015      -2.56037014E-03  0.295187324       4.84101474E-06
  0.224264458      -2.04904471E-03  0.956691027      0.939902425      0.345405638      -2.18105037E-03  0.294522524       5.49107790E-06
  0.234458551      -2.11525219E-03  0.956822395      0.940083623      0.344570786      -1.74256321E-03  0.293800443       6.01634383E-06
  0.244652733      -2.16741930E-03  0.956983387      0.940305173      0.343662202      -1.23891712E-03  0.293013990       6.11692667E-06
  0.254846990      -2.20344099E-03  0.957176387      0.940570951      0.342670679      -6.62837934E-04  0.292155415       6.44475222E-06
  0.265041292      -2.22095218E-03  0.957404137      0.940884888      0.341585457      -5.34565515E-06  0.291215658       7.03707337E-06
  0.275235593      -2.21726228E-03  0.957669735      0.941251040      0.340394258       7.44591642E-04  0.290184617       7.80448318E-06
  0.285429865      -2.18927371E-03  0.957976520      0.941673994      0.339082420       1.60066155E-03  0.289050192       8.67620111E-06
  0.295624018      -2.13337177E-03  0.958327949      0.942158341      0.337632060       2.58037518E-03  0.287797809       9.43243504E-06
  0.305817962      -2.04527588E-03  0.958728135      0.942710459      0.336021423       3.70582333E-03  0.286409825       1.06990337E-05
  0.316011488      -1.91983546E-03  0.959182203      0.943336785      0.334223151       5.00618434E-03  0.284864545       1.19898468E-05
  0.326204360      -1.75073801E-03  0.959695995      0.944045603      0.332203150       6.51980145E-03  0.283135086       1.34017318E-05
  0.336396307      -1.53008103E-03  0.960277081      0.944847882      0.329917461       8.29920173E-03  0.281187475       1.54376030E-05
  0.346586645      -1.24772848E-03  0.960934699      0.945756674      0.327309281       1.04184486E-02  0.278978914       1.84085220E-05
  0.356774658      -8.90274358E-04  0.961681187      0.946789026      0.324303597       1.29856830E-02  0.276455075       2.22455710E-05
  0.366958946      -4.39326104E-04  0.962533414      0.947968423      0.320801020       1.61869135E-02  0.273548812       2.69841403E-05
  0.377137065       1.33766516E-04  0.963529050      0.949349523      0.316715151       2.08587162E-02  0.270248979       3.54200602E-05
  0.387299746       9.32033930E-04  0.964540660      0.950756490      0.312699884       2.79221721E-02  0.267247617       4.72832471E-05
  0.397434235       2.03104783E-03  0.965305030      0.951827288      0.309491873       3.69593799E-02  0.265285373       6.39185309E-05
  0.407523632       3.48527054E-03  0.965718508      0.952421963      0.307393223       4.78530154E-02  0.264752775       8.89338553E-05
  0.417543113       5.36030158E-03  0.965665042      0.952387571      0.306835592       6.10721707E-02  0.266246945       1.30368397E-04
  0.427456856       7.73026003E-03  0.964874983      0.951367915      0.308776140       7.72714242E-02  0.270913780       2.05053017E-04
  0.437217921       1.06651187E-02  0.962840736      0.948694825      0.315032214       9.70431268E-02  0.280666202       3.46088782E-04
  0.446780443       1.41935814E-02  0.958649337      0.943163991      0.328812063      0.120075539      0.298265666       6.06814399E-04
  0.456144422       1.82216074E-02  0.950913250      0.932924986      0.354830682      0.142801240      0.326362908       1.03490986E-03
  0.465438336       2.24102195E-02  0.938487709      0.916431546      0.396363437      0.155009046      0.363996834       1.61181763E-03
  0.474928796       2.61229333E-02  0.922987640      0.895858228      0.446665913      0.142164603      0.402115017       2.22213194E-03
  0.484786808       2.86871437E-02  0.909865797      0.878567338      0.487228960      0.100319229      0.427844644       2.77872384E-03
  0.494905144       2.98680626E-02  0.903522074      0.870521009      0.504771888       4.53154072E-02  0.436369091       3.37326899E-03
  0.505094886       2.98680626E-02  0.902840614      0.870221257      0.502141416      -8.33110791E-03  0.432327151       4.08513844E-03
  0.515213192       2.86871418E-02  0.904580295      0.873534262      0.483956873      -6.23954646E-02  0.419668198       5.18991798E-03
  0.525071204       2.61229314E-02  0.908766031      0.880563855      0.449646980     -0.113382556      0.398143142       6.74185529E-03
  0.534561634       2.24102195E-02  0.917043149      0.893123388      0.404960603     -0.144243032      0.368150264       8.21049511E-03
  0.543855608       1.82216056E-02  0.928513706      0.909679949      0.361541718     -0.145775810      0.332854748       9.17575881E-03
  0.553219557       1.41935805E-02  0.939516306      0.925294161      0.327550828     -0.127027541      0.299192548       9.70256329E-03
  0.562782109       1.06651178E-02  0.947405398      0.936437190      0.304948181     -0.102838792      0.273577213       9.96659882E-03
  0.572543144       7.73025956E-03  0.952182055      0.943173170      0.291664600      -8.12029615E-02  0.257095993       1.00932922E-02
  0.582456887       5.36030112E-03  0.954863727      0.946952403      0.284652382      -6.37621433E-02  0.247564584       1.01548610E-02
  0.592476368       3.48527008E-03  0.956315041      0.948983133      0.281564742      -4.99190055E-02  0.242608398       1.01707857E-02