 title = "grid"
                                   variables = "x","y","rho","P","u","v","M","S"
 zone n=        3000  e =        5742  et=quadrilateral, f=fepoint
   0.00000000       0.00000000      0.955284476      0.937963426      0.356031537      -2.80911976E-04  0.303667277       1.78813934E-07
   1.00000000       0.00000000      0.944690824      0.932341695      0.328569114       5.91988326E-04  0.279525042       9.60070640E-03
   1.00000000      0.300000012      0.951249599      0.932445765      0.367258102      -1.40213842E-05  0.313503802       2.59969383E-05
   0.00000000      0.300000012      0.956387043      0.939479113      0.352262229      -3.96076539E-05  0.300383002      -8.56816769E-08
   1.00000000       1.03448275E-02  0.946158469      0.932404101      0.335071623       8.64372065E-04  0.285269201       7.49436021E-03
   1.00000000       2.06896551E-02  0.947835445      0.932448626      0.343054920       1.09786540E-03  0.292318225       5.06292284E-03
   1.00000000       3.10344826E-02  0.948951066      0.932478547      0.349152029       1.22402306E-03  0.297684133       3.44812870E-03
   1.00000000       4.13793102E-02  0.949708700      0.932498991      0.354077935       1.28054153E-03  0.302001238       2.35271454E-03
   1.00000000       5.17241396E-02  0.950224936      0.932512999      0.358067006       1.29006396E-03  0.305484295       1.60695799E-03
   1.00000000       6.20689653E-02  0.950575829      0.932522535      0.361258686       1.26719032E-03  0.308262497       1.10032968E-03
   1.00000000       7.24137947E-02  0.950812757      0.932528913      0.363763005       1.22175273E-03  0.310436845       7.58239999E-04
   1.00000000       8.27586204E-02  0.950971842      0.932532907      0.365675956       1.16061373E-03  0.312094659       5.28315082E-04
   1.00000000       9.31034461E-02  0.951077938      0.932534933      0.367087364       1.08886196E-03  0.313316226       3.74263152E-04
   1.00000000      0.103448279      0.951148272      0.932535112      0.368085802       1.01028441E-03  0.314179748       2.70953402E-04
   1.00000000      0.113793105      0.951194704      0.932533979      0.368753701       9.27794608E-04  0.314757526       2.01389194E-04
   1.00000000      0.124137931      0.951225102      0.932531595      0.369161993       8.43749382E-04  0.315111309       1.54148787E-04
   1.00000000      0.134482756      0.951245129      0.932528138      0.369371325       7.59925635E-04  0.315293729       1.20900571E-04
   1.00000000      0.144827589      0.951257646      0.932523549      0.369431823       6.77826116E-04  0.315348089       9.75914299E-05
   1.00000000      0.155172408      0.951265097      0.932518303      0.369384617       5.98559447E-04  0.315309793       8.10269266E-05
   1.00000000      0.165517241      0.951269209      0.932512224      0.369261980       5.23079711E-04  0.315206736       6.83981925E-05
   1.00000000      0.175862074      0.951270878      0.932505727      0.369089395       4.51892731E-04  0.315060705       5.90123236E-05
   1.00000000      0.186206892      0.951270759      0.932498872      0.368886977       3.85524589E-04  0.314888984       5.18243760E-05
   1.00000000      0.196551725      0.951269627      0.932491839      0.368669868       3.24156950E-04  0.314704597       4.59868461E-05
   1.00000000      0.206896558      0.951267481      0.932484865      0.368449628       2.67868862E-04  0.314517379       4.16580588E-05
   1.00000000      0.217241377      0.951265037      0.932478070      0.368235290       2.16553468E-04  0.314335138       3.79327685E-05
   1.00000000      0.227586210      0.951262057      0.932471395      0.368033290       1.70037543E-04  0.314163297       3.51760536E-05
   1.00000000      0.237931028      0.951259196      0.932465315      0.367848784       1.28018844E-04  0.314006329       3.28477472E-05
   1.00000000      0.248275861      0.951256752      0.932459593      0.367685676       9.02001848E-05  0.313867629       3.02791595E-05
   1.00000000      0.258620679      0.951254129      0.932454228      0.367546141       5.64553156E-05  0.313749015       2.84072012E-05
   1.00000000      0.268965513      0.951251090      0.932449460      0.367431968       2.69937736E-05  0.313651860       2.78148800E-05
   1.00000000      0.279310346      0.951247990      0.932444632      0.367343843       2.89036166E-06  0.313576937       2.71629542E-05
   1.00000000      0.289655179      0.951244116      0.932438433      0.367284030      -1.24668659E-05  0.313526243       2.62465328E-05
  0.989898980      0.300000012      0.951214015      0.932396531      0.367288262      -1.20489622E-05  0.313531965       2.55797058E-05
  0.979797959      0.300000012      0.951119184      0.932265818      0.367357999       1.64778419E-06  0.313597858       2.49594450E-05
  0.969696999      0.300000012      0.951004446      0.932107747      0.367440134       1.29647215E-05  0.313675612       2.42516398E-05
  0.959595978      0.300000012      0.950869739      0.931922674      0.367537141       2.28516492E-05  0.313767374       2.40728259E-05
  0.949494958      0.300000012      0.950716317      0.931711972      0.367649704       3.16667356E-05  0.313873619       2.38437206E-05
  0.939393938      0.300000012      0.950545847      0.931477666      0.367777467       3.96487012E-05  0.313994050       2.33743340E-05
  0.929292917      0.300000012      0.950360060      0.931222677      0.367919356       4.67307909E-05  0.314127475       2.32867897E-05
  0.919191897      0.300000012      0.950161159      0.930949509      0.368074059       5.30341131E-05  0.314272791       2.28583813E-05
  0.909090936      0.300000012      0.949951828      0.930662274      0.368239939       5.85347589E-05  0.314428270       2.27969140E-05
  0.898989916      0.300000012      0.949734688      0.930364430      0.368415028       6.31483563E-05  0.314592153       2.27168202E-05
  0.888888896      0.300000012      0.949512780      0.930059850      0.368597418       6.68490611E-05  0.314762682       2.25007534E-05
  0.878787875      0.300000012      0.949288547      0.929752171      0.368785352       6.95714407E-05  0.314938068       2.22865492E-05
  0.868686855      0.300000012      0.949064910      0.929445326      0.368977100       7.12347464E-05  0.315116704       2.19978392E-05
  0.858585835      0.300000012      0.948844433      0.929142773      0.369171053       7.17816802E-05  0.315297037       2.16830522E-05
  0.848484874      0.300000012      0.948629439      0.928847849      0.369366318       7.10839377E-05  0.315478146       2.15191394E-05
  0.838383853      0.300000012      0.948422253      0.928563356      0.369562358       6.91450987E-05  0.315659463       2.09826976E-05
  0.828282833      0.300000012      0.948224366      0.928291559      0.369759023       6.57209093E-05  0.315840721       2.03754753E-05
  0.818181813      0.300000012      0.948036969      0.928034425      0.369956851       6.07600305E-05  0.316022217       2.00346112E-05
  0.808080792      0.300000012      0.947861016      0.927792788      0.370156854       5.42174384E-05  0.316204906       1.95112079E-05
  0.797979772      0.300000012      0.947696865      0.927567303      0.370360702       4.60247684E-05  0.316390067       1.88685954E-05
  0.787878811      0.300000012      0.947544515      0.927358449      0.370570719       3.60803715E-05  0.316579700       1.88220292E-05
  0.777777791      0.300000012      0.947403967      0.927165329      0.370788902       2.45159099E-05  0.316775590       1.82259828E-05
  0.767676771      0.300000012      0.947274446      0.926987588      0.371017933       1.13825681E-05  0.316979975       1.79186463E-05
  0.757575750      0.300000012      0.947155416      0.926823914      0.371260613      -3.24211010E-06  0.317195386       1.72611326E-05
  0.747474730      0.300000012      0.947045624      0.926673234      0.371519536      -1.93214255E-05  0.317423999       1.69724226E-05
  0.737373710      0.300000012      0.946944058      0.926533937      0.371796846      -3.65112246E-05  0.317667812       1.67265534E-05
  0.727272749      0.300000012      0.946850002      0.926404595      0.372094363      -5.46137708E-05  0.317928374       1.61901116E-05
  0.717171729      0.300000012      0.946762323      0.926284373      0.372413546      -7.34049536E-05  0.318207026       1.60764903E-05
  0.707070708      0.300000012      0.946680367      0.926171541      0.372755170      -9.25180429E-05  0.318504572       1.54227018E-05
  0.696969688      0.300000012      0.946603298      0.926065505      0.373119265      -1.11716909E-04  0.318820924       1.49030238E-05
  0.686868668      0.300000012      0.946530998      0.925966024      0.373505026      -1.30606655E-04  0.319155514       1.44597143E-05
  0.676767647      0.300000012      0.946463168      0.925872862      0.373910785      -1.48804887E-04  0.319506854       1.41877681E-05
  0.666666687      0.300000012      0.946400166      0.925786436      0.374333888      -1.65879697E-04  0.319872707       1.39921904E-05
  0.656565666      0.300000012      0.946342885      0.925707579      0.374770671      -1.81405907E-04  0.320249885       1.35172158E-05
  0.646464646      0.300000012      0.946292400      0.925637960      0.375216454      -1.94932582E-04  0.320634335       1.30608678E-05
  0.636363626      0.300000012      0.946249902      0.925579786      0.375665158      -2.05987773E-04  0.321020663       1.30347908E-05
  0.626262605      0.300000012      0.946217716      0.925535440      0.376109630      -2.13921347E-04  0.321402699       1.27498060E-05
  0.616161644      0.300000012      0.946198285      0.925508440      0.376541317      -2.18256624E-04  0.321772963       1.23903155E-05
  0.606060624      0.300000012      0.946194470      0.925502598      0.376950145      -2.18278394E-04  0.322122723       1.16731972E-05
  0.595959604      0.300000012      0.946209192      0.925522387      0.377324432      -2.13426014E-04  0.322441638       1.13081187E-05
  0.585858583      0.300000012      0.946245730      0.925572336      0.377651840      -2.03418065E-04  0.322718918       1.12224370E-05
  0.575757563      0.300000012      0.946307659      0.925656915      0.377919346      -1.88297141E-04  0.322943300       1.09262764E-05
  0.565656543      0.300000012      0.946397960      0.925780416      0.378114104      -1.68147919E-04  0.323103607       1.07921660E-05
  0.555555582      0.300000012      0.946519613      0.925946832      0.378224045      -1.43609650E-04  0.323189259       1.05537474E-05
  0.545454562      0.300000012      0.946674824      0.926159024      0.378238559      -1.15548486E-04  0.323191136       1.01681799E-05
  0.535353541      0.300000012      0.946865261      0.926419556      0.378148824      -8.50819270E-05  0.323101491       9.81986523E-06
  0.525252521      0.300000012      0.947091818      0.926729739      0.377949178      -5.37639280E-05  0.322915524       9.63918865E-06
  0.515151501      0.300000012      0.947355270      0.927090466      0.377636075      -2.27827659E-05  0.322630048       9.42684710E-06
  0.505050480      0.300000012      0.947655976      0.927502275      0.377209097       7.10524728E-06  0.322244853       9.22754407E-06
  0.494949490      0.300000012      0.947993696      0.927964985      0.376669824       3.59430887E-05  0.321761250       9.13254917E-06
  0.484848499      0.300000012      0.948367357      0.928476870      0.376021624       6.34577664E-05  0.321182281       8.89040530E-06
  0.474747479      0.300000012      0.948775113      0.929035604      0.375270367       8.93385295E-05  0.320513070       8.67620111E-06
  0.464646459      0.300000012      0.949215114      0.929638624      0.374423116       1.13928254E-04  0.319759846       8.42846930E-06
  0.454545468      0.300000012      0.949684918      0.930282652      0.373487234       1.37481009E-04  0.318929076       8.21426511E-06
  0.444444448      0.300000012      0.950181782      0.930963457      0.372471035       1.59151328E-04  0.318028152       7.49714673E-06
  0.434343427      0.300000012      0.950701535      0.931675851      0.371385187       1.77515394E-04  0.317066431       6.82286918E-06
  0.424242437      0.300000012      0.951239526      0.932413518      0.370242506       1.91439744E-04  0.316055208       6.28642738E-06
  0.414141417      0.300000012      0.951790869      0.933169663      0.369057268       2.00345487E-04  0.315007031       5.66802919E-06
  0.404040396      0.300000012      0.952350795      0.933937788      0.367844254       2.04026073E-04  0.313934863       5.12786210E-06
  0.393939406      0.300000012      0.952913940      0.934710741      0.366617799       2.02829266E-04  0.312851191       4.75719571E-06
  0.383838385      0.300000012      0.953475773      0.935482144      0.365391403       1.97187706E-04  0.311767966       4.55975533E-06
  0.373737365      0.300000012      0.954032004      0.936245859      0.364177495       1.87764032E-04  0.310696006       4.10713255E-06
  0.363636374      0.300000012      0.954578221      0.936996043      0.362987041       1.75121299E-04  0.309645027       3.74764204E-06
  0.353535354      0.300000012      0.955110550      0.937727392      0.361829549       1.59981239E-04  0.308623195       3.45148146E-06
  0.343434334      0.300000012      0.955625296      0.938435018      0.360713154       1.43098965E-04  0.307637781       3.49618495E-06
  0.333333343      0.300000012      0.956119597      0.939114511      0.359644204       1.25011487E-04  0.306694478       3.28384340E-06
  0.323232323      0.300000012      0.956590474      0.939762056      0.358628124       1.06199492E-04  0.305797845       3.31178308E-06
  0.313131303      0.300000012      0.957035601      0.940373659      0.357669234       8.70666263E-05  0.304951966       2.63191760E-06
  0.303030312      0.300000012      0.957452118      0.940946519      0.356770635       6.80807207E-05  0.304159343       2.40467489E-06
  0.292929292      0.300000012      0.957838535      0.941478074      0.355934143       4.94748674E-05  0.303421706       2.26125121E-06
  0.282828271      0.300000012      0.958193481      0.941966176      0.355161339       3.15152356E-05  0.302740574       1.89989805E-06
  0.272727281      0.300000012      0.958515465      0.942409098      0.354452938       1.44089117E-05  0.302116454       1.61305070E-06
  0.262626261      0.300000012      0.958803892      0.942805529      0.353808612      -1.64720279E-06  0.301549226       9.98377800E-07
  0.252525240      0.300000012      0.959057748      0.943154871      0.353227943      -1.66455411E-05  0.301038414       8.02800059E-07
  0.242424250      0.300000012      0.959276974      0.943456709      0.352709800      -3.03457728E-05  0.300583094       7.65547156E-07
  0.232323229      0.300000012      0.959461629      0.943710625      0.352252632      -4.28095445E-05  0.300181985       4.52622771E-07
  0.222222224      0.300000012      0.959611714      0.943917394      0.351854444      -5.38870445E-05  0.299833238       5.42029738E-07
  0.212121218      0.300000012      0.959728062      0.944077611      0.351512998      -6.36341792E-05  0.299535006       5.17815351E-07
  0.202020198      0.300000012      0.959810972      0.944191754      0.351225853      -7.20365424E-05  0.299285203       5.12227416E-07
  0.191919193      0.300000012      0.959861457      0.944261491      0.350990146      -7.90329359E-05  0.299081147       6.57513738E-07
  0.181818187      0.300000012      0.959880352      0.944287837      0.350803047      -8.46865514E-05  0.298920512       1.03563070E-06
  0.171717167      0.300000012      0.959869087      0.944272161      0.350661367      -8.90654337E-05  0.298800498       8.90344381E-07
  0.161616161      0.300000012      0.959828556      0.944216013      0.350562036      -9.21451356E-05  0.298718423       4.99188900E-07
  0.151515156      0.300000012      0.959759891      0.944121480      0.350501895      -9.39437741E-05  0.298671454       5.94183803E-07
  0.141414136      0.300000012      0.959664345      0.943989575      0.350477487      -9.46287619E-05  0.298656672       2.42143869E-07
  0.131313130      0.300000012      0.959543169      0.943822503      0.350485623      -9.42293773E-05  0.298671156       3.35276127E-08
  0.121212125      0.300000012      0.959397614      0.943621874      0.350523174      -9.27298825E-05  0.298712254      -1.88127160E-07
  0.111111112      0.300000012      0.959228933      0.943389833      0.350587159      -9.03960099E-05  0.298777252       1.67638063E-08
  0.101010099      0.300000012      0.959038556      0.943127751      0.350674301      -8.72907185E-05  0.298863381       8.38190317E-08
   9.09090936E-02  0.300000012      0.958828032      0.942837954      0.350781769      -8.35360916E-05  0.298968107       1.41561031E-07
   8.08080807E-02  0.300000012      0.958598793      0.942522466      0.350907028      -7.94152729E-05  0.299089164       1.75088644E-07
   7.07070678E-02  0.300000012      0.958352566      0.942183435      0.351047784      -7.49969840E-05  0.299224526       5.21540642E-08
   6.06060624E-02  0.300000012      0.958090603      0.941822946      0.351202130      -7.05056736E-05  0.299372405       1.65775418E-07
   5.05050495E-02  0.300000012      0.957814693      0.941443563      0.351368308      -6.62107486E-05  0.299531311       4.52622771E-07
   4.04040404E-02  0.300000012      0.957526684      0.941047311      0.351545066      -6.22545776E-05  0.299699992       4.86150384E-07
   3.03030312E-02  0.300000012      0.957228661      0.940636933      0.351731122      -5.86929018E-05  0.299877316       1.22934580E-07
   2.02020202E-02  0.300000012      0.956922293      0.940215409      0.351924926      -5.51696976E-05  0.300061792       5.58793545E-08
   1.01010101E-02  0.300000012      0.956611156      0.939787447      0.352122277      -5.01773065E-05  0.300249547       6.70552254E-08
   0.00000000      0.289655179      0.956365287      0.939449251      0.352295667      -3.14614153E-05  0.300412893      -2.79396772E-08
   0.00000000      0.279310346      0.956354916      0.939435244      0.352332652      -2.90738899E-05  0.300445020       2.44006515E-07
   0.00000000      0.268965513      0.956343472      0.939419389      0.352371126      -2.89296058E-05  0.300478578       1.13621354E-07
   0.00000000      0.258620679      0.956330359      0.939401269      0.352413177      -2.94990296E-05  0.300515264       1.30385160E-08
   0.00000000      0.248275861      0.956315041      0.939380229      0.352459282      -3.03133311E-05  0.300555557       5.40167093E-08
   0.00000000      0.237931028      0.956298053      0.939356744      0.352509767      -3.14758072E-05  0.300599664      -5.58793545E-08
   0.00000000      0.227586210      0.956279218      0.939331114      0.352564454      -3.29581962E-05  0.300647438       2.38418579E-07
   0.00000000      0.217241377      0.956258714      0.939302683      0.352623373      -3.47532914E-05  0.300699025       2.79396772E-08
   0.00000000      0.206896558      0.956236422      0.939272225      0.352686524      -3.70186608E-05  0.300754219       1.71363354E-07
   0.00000000      0.196551725      0.956212759      0.939239442      0.352753848      -3.96984069E-05  0.300813168      -5.58793545E-08
   0.00000000      0.186206892      0.956187427      0.939204752      0.352825820      -4.31328626E-05  0.300876111       1.04308128E-07
   0.00000000      0.175862074      0.956160486      0.939167559      0.352902412      -4.73519722E-05  0.300943136      -2.42143869E-08
   0.00000000      0.165517241      0.956131995      0.939128518      0.352984309      -5.26746226E-05  0.301014751       1.21071935E-07
   0.00000000      0.155172408      0.956101894      0.939087152      0.353072107      -5.91541902E-05  0.301091522       6.89178705E-08
   0.00000000      0.144827589      0.956070125      0.939043343      0.353166699      -6.70832815E-05  0.301174223      -4.47034836E-08
   0.00000000      0.134482756      0.956036329      0.938996851      0.353269249      -7.66515222E-05  0.301263809      -3.72529030E-08
   0.00000000      0.124137931      0.956000149      0.938947439      0.353381008      -8.80168081E-05  0.301361322       2.81259418E-07
   0.00000000      0.113793105      0.955961704      0.938894331      0.353503615      -1.01458558E-04  0.301468372       5.02914190E-08
   0.00000000      0.103448279      0.955920160      0.938837171      0.353639334      -1.17213189E-04  0.301586747       1.86264515E-08
   0.00000000       9.31034461E-02  0.955875456      0.938775659      0.353789926      -1.35639260E-04  0.301718026      -2.79396772E-08
   0.00000000       8.27586204E-02  0.955826521      0.938708425      0.353958249      -1.56905502E-04  0.301864654      -1.11758709E-08
   0.00000000       7.24137947E-02  0.955773056      0.938634813      0.354147136      -1.81027150E-04  0.302029163      -8.00937414E-08
   0.00000000       6.20689653E-02  0.955714226      0.938553929      0.354359686      -2.08260113E-04  0.302214146      -1.11758709E-07
   0.00000000       5.17241396E-02  0.955649078      0.938464463      0.354599833      -2.38118620E-04  0.302423030       3.91155481E-08
   0.00000000       4.13793102E-02  0.955576956      0.938365400      0.354871303      -2.69563112E-04  0.302659184       1.15483999E-07
   0.00000000       3.10344826E-02  0.955497265      0.938255906      0.355178684      -2.99688283E-04  0.302926421       1.41561031E-07
   0.00000000       2.06896551E-02  0.955409348      0.938134789      0.355527163      -3.21249070E-04  0.303229243      -6.14672899E-08
   0.00000000       1.03448275E-02  0.955312908      0.938002229      0.355922312      -3.17523518E-04  0.303572387      -5.02914190E-08
   1.01942774E-02  -1.06002917E-05  0.955225408      0.937882066      0.356092066      -5.15624648E-04  0.303722918       3.16649675E-08
   2.03885511E-02  -4.05888240E-05  0.955088437      0.937693894      0.356110126      -1.09914353E-03  0.303748131       1.47148967E-07
   3.05827484E-02  -8.74972393E-05  0.954996109      0.937567055      0.355997562      -1.63951213E-03  0.303659767       1.99303031E-07
   4.07768898E-02  -1.49138228E-04  0.954934835      0.937483072      0.355795979      -2.11927877E-03  0.303493828       4.99188900E-07
   5.09709269E-02  -2.23550553E-04  0.954900503      0.937436044      0.355527341      -2.53942120E-03  0.303269207       6.76140189E-07
   6.11648858E-02  -3.08956922E-04  0.954891682      0.937424004      0.355204195      -2.90322071E-03  0.302996516       7.15255737E-07
   7.13587478E-02  -4.03728453E-04  0.954908371      0.937447190      0.354833454      -3.21408128E-03  0.302681446       1.02259219E-06
   8.15525427E-02  -5.06357115E-04  0.954951584      0.937506616      0.354419231      -3.47522134E-03  0.302327454       9.94652510E-07
   9.17462707E-02  -6.15430705E-04  0.955022156      0.937603891      0.353963882      -3.68897477E-03  0.301936448       1.31502748E-06
  0.101939946      -7.29613879E-04  0.955121696      0.937740743      0.353467882      -3.85754695E-03  0.301508665       1.32620335E-06
  0.112133577      -8.47629446E-04  0.955250919      0.937918603      0.352931142      -3.98232276E-03  0.301043868       1.61677599E-06
  0.122327171      -9.68243345E-04  0.955410957      0.938138902      0.352353126      -4.06459486E-03  0.300541580       1.92597508E-06
  0.132520750      -1.09024998E-03  0.955602646      0.938402772      0.351732790      -4.10491368E-03  0.300000846       2.28546560E-06
  0.142714337      -1.21245917E-03  0.955826759      0.938710988      0.351068974      -4.10367269E-03  0.299420655       2.38232315E-06
  0.152907923      -1.33368257E-03  0.956083357      0.939064145      0.350360632      -4.06072568E-03  0.298800051       2.73436308E-06
  0.163101539      -1.45272142E-03  0.956372559      0.939462006      0.349606514      -3.97552457E-03  0.298138142       2.95042992E-06
  0.173295200      -1.56835280E-03  0.956693947      0.939904332      0.348805487      -3.84721207E-03  0.297433883       3.23541462E-06
  0.183488905      -1.67931605E-03  0.957046986      0.940390229      0.347956181      -3.67434463E-03  0.296686202       3.56510282E-06
  0.193682685      -1.78429752E-03  0.957431078      0.940918982      0.347057074      -3.45510524E-03  0.295893908       3.92086804E-06
  0.203876525      -1.88191328E-03  0.957845509      0.941489458      0.346106470      -3.18701495E-03  0.295055777       4.12948430E-06
  0.214070454      -1.97069068E-03  0.958289087      0.942100167      0.345102191      -2.86703999E-03  0.294169992       4.42378223E-06
  0.224264458      -2.04904471E-03  0.958760917      0.942749918      0.344041228      -2.49135494E-03  0.293234318       4.73484397E-06
  0.234458551      -2.11525219E-03  0.959259987      0.943437397      0.342920125      -2.05522939E-03  0.292245865       5.13345003E-06
  0.244652733      -2.16741930E-03  0.959785461      0.944161534      0.341734022      -1.55298307E-03  0.291200846       5.67920506E-06
  0.254846990      -2.20344099E-03  0.960336626      0.944921315      0.340476722      -9.77418385E-04  0.290094256       6.31436706E-06
  0.265041292      -2.22095218E-03  0.960913122      0.945716143      0.339140564      -3.19792191E-04  0.288919985       6.97933137E-06
  0.275235593      -2.21726228E-03  0.961514771      0.946545899      0.337715656       4.30669374E-04  0.287670076       7.66478479E-06
  0.285429865      -2.18927371E-03  0.962141991      0.947411180      0.336189359       1.28746510E-03  0.286334395       8.48434865E-06
  0.295624018      -2.13337177E-03  0.962795675      0.948313296      0.334545791       2.26780446E-03  0.284900159       9.34116542E-06
  0.305817962      -2.04527588E-03  0.963477612      0.949254751      0.332765013       3.39340535E-03  0.283351600       1.03916973E-05
  0.316011488      -1.91983546E-03  0.964190304      0.950239301      0.330821127       4.69308021E-03  0.281668186       1.17868185E-05
  0.326204360      -1.75073801E-03  0.964937866      0.951272547      0.328681469       6.20471081E-03  0.279824525       1.34967268E-05
  0.336396307      -1.53008103E-03  0.965725899      0.952362120      0.326303393       7.98028242E-03  0.277787894       1.54059380E-05
  0.346586645      -1.24772848E-03  0.966561735      0.953518808      0.323631346       1.00929113E-02  0.275516629       1.80415809E-05
  0.356774658      -8.90274358E-04  0.967455804      0.954757333      0.320591986       1.26495678E-02  0.272957802       2.16439366E-05
  0.366958946      -4.39326104E-04  0.968423128      0.956098676      0.317087859       1.58342142E-02  0.270045936       2.64886767E-05
  0.377137065       1.33766516E-04  0.969499588      0.957594991      0.313034415       2.04749666E-02  0.266770601       3.49972397E-05
  0.387299746       9.32033930E-04  0.970559120      0.959072411      0.309079170       2.74820607E-02  0.263815939       4.74285334E-05
  0.397434235       2.03104783E-03  0.971343935      0.960174680      0.305949271       3.64425406E-02  0.261912376       6.44996762E-05
  0.407523632       3.48527054E-03  0.971751928      0.960764050      0.303943932       4.72437590E-02  0.261446446       9.01706517E-05
  0.417543113       5.36030158E-03  0.971669197      0.960690260      0.303491145       6.03544675E-02  0.263009757       1.32540241E-04
  0.427456856       7.73026003E-03  0.970830917      0.959602952      0.305539489       7.64277503E-02  0.267736852       2.08450481E-04
  0.437217921       1.06651187E-02  0.968736589      0.956842005      0.311887056       9.60582346E-02  0.277520478       3.50581482E-04
  0.446780443       1.41935814E-02  0.964484513      0.951215684      0.325708896      0.118942291      0.295091659       6.11690804E-04
  0.456144422       1.82216074E-02  0.956705511      0.940894067      0.351670504      0.141542494      0.323067188       1.03875808E-03
  0.465438336       2.24102195E-02  0.944272697      0.924350858      0.393001944      0.153717920      0.360473603       1.61283836E-03
  0.474928796       2.61229333E-02  0.928793252      0.903753698      0.442989498      0.141033411      0.398316294       2.21833214E-03
  0.484786808       2.86871437E-02  0.915670931      0.886416554      0.483265877       9.95734558E-02  0.423839390       2.76923180E-03
  0.494905144       2.98680626E-02  0.909270465      0.878270268      0.500662386       4.50645983E-02  0.432280451       3.35682929E-03
  0.505094886       2.98680626E-02  0.908507049      0.877856314      0.497984678      -8.09469447E-03  0.428214878       4.06132638E-03
  0.515213192       2.86871418E-02  0.910176694      0.881078184      0.479805350      -6.16554655E-02  0.415540248       5.15418500E-03
  0.525071204       2.61229314E-02  0.914282560      0.888011038      0.445610821     -0.112126887      0.394052207       6.69076294E-03
  0.534561634       2.24102195E-02  0.922433615      0.900423944      0.401156396     -0.142593548      0.364191890       8.14621523E-03
  0.543855608       1.82216056E-02  0.933729112      0.916774809      0.358001351     -0.143982679      0.329121768       9.10309702E-03
  0.553219557       1.41935805E-02  0.944537163      0.932152331      0.324236780     -0.125329629      0.295734525       9.62530635E-03
  0.562782109       1.06651178E-02  0.952242374      0.943067312      0.301807791     -0.101356320      0.270379603       9.89234541E-03
  0.572543144       7.73025956E-03  0.956850350      0.949594438      0.288675785      -7.99584836E-02  0.254126877       1.00312596E-02
  0.582456887       5.36030112E-03  0.959367573      0.953172445      0.281836271      -6.27375767E-02  0.244817019       1.01139490E-02
  0.592476368       3.48527008E-03  0.960642338      0.954988241      0.278979927      -4.90877293E-02  0.240110800       1.01581458E-02