 title = "grid"
                                   variables = "x","y","rho","P","u","v","M","S"
 zone n=        3000  e =        5742  et=quadrilateral, f=fepoint
   0.00000000       0.00000000      0.955303669      0.937989533      0.356270701      -3.33454896E-04  0.303870142      -7.45058060E-08
   1.00000000       0.00000000      0.944412410      0.932047486      0.325181544       5.79326879E-04  0.276645988       9.69777815E-03
   1.00000000      0.300000012      0.951450467      0.932719648      0.369595259       7.17109433E-05  0.315485865       2.41231173E-05
   0.00000000      0.300000012      0.956935883      0.940234005      0.349557817      -1.53549954E-05  0.298042655      -4.28408384E-08
   1.00000000       1.03448275E-02  0.945908844      0.932129502      0.331745297       9.36518656E-04  0.282441825       7.56916404E-03
   1.00000000       2.06896551E-02  0.947608471      0.932175457      0.339852750       1.27487001E-03  0.289597929       5.10522351E-03
   1.00000000       3.10344826E-02  0.948744595      0.932211637      0.346088290       1.49972492E-03  0.295083106       3.46650928E-03
   1.00000000       4.13793102E-02  0.949517965      0.932241678      0.351175040       1.64726574E-03  0.299537867       2.35797279E-03
   1.00000000       5.17241396E-02  0.950047195      0.932268560      0.355349004       1.74012117E-03  0.303178459       1.60672329E-03
   1.00000000       6.20689653E-02  0.950410068      0.932293534      0.358749449       1.79313077E-03  0.306134194       1.09887309E-03
   1.00000000       7.24137947E-02  0.950660408      0.932318151      0.361484677       1.81622268E-03  0.308504820       7.56591558E-04
   1.00000000       8.27586204E-02  0.950834274      0.932342768      0.363648862       1.81656948E-03  0.310376078       5.26910648E-04
   1.00000000       9.31034461E-02  0.950956821      0.932367742      0.365328670       1.79908122E-03  0.311825603       3.73303890E-04
   1.00000000      0.103448279      0.951045573      0.932393193      0.366609573       1.76740822E-03  0.312929094       2.69951299E-04
   1.00000000      0.113793105      0.951112092      0.932419240      0.367569894       1.72403234E-03  0.313755184       1.99960545E-04
   1.00000000      0.124137931      0.951163948      0.932445943      0.368277282       1.67072390E-03  0.314362854       1.52245164E-04
   1.00000000      0.134482756      0.951206386      0.932473004      0.368788838       1.60879467E-03  0.314801753       1.18844211E-04
   1.00000000      0.144827589      0.951242447      0.932500601      0.369150996       1.53940730E-03  0.315111965       9.53469425E-05
   1.00000000      0.155172408      0.951273680      0.932528138      0.369401366       1.46318728E-03  0.315325916       7.89370388E-05
   1.00000000      0.165517241      0.951301992      0.932555437      0.369569093       1.38065231E-03  0.315468907       6.65448606E-05
   1.00000000      0.175862074      0.951327801      0.932582200      0.369676232       1.29254174E-03  0.315559834       5.71943820E-05
   1.00000000      0.186206892      0.951352060      0.932608426      0.369739741       1.19922357E-03  0.315613329       4.96916473E-05
   1.00000000      0.196551725      0.951374114      0.932633460      0.369771957       1.10120396E-03  0.315640002       4.40608710E-05
   1.00000000      0.206896558      0.951394558      0.932657003      0.369781464       9.98947537E-04  0.315647304       3.92422080E-05
   1.00000000      0.217241377      0.951412737      0.932678819      0.369775295       8.92991491E-04  0.315641135       3.58447433E-05
   1.00000000      0.227586210      0.951429069      0.932698667      0.369757891       7.84074480E-04  0.315625399       3.31234187E-05
   1.00000000      0.237931028      0.951443434      0.932716131      0.369733006       6.72854017E-04  0.315603375       3.06516886E-05
   1.00000000      0.248275861      0.951455891      0.932730913      0.369703114       5.60245535E-04  0.315577298       2.82283872E-05
   1.00000000      0.258620679      0.951465666      0.932742894      0.369670272       4.47355182E-04  0.315548718       2.66656280E-05
   1.00000000      0.268965513      0.951472521      0.932751775      0.369635940       3.35581804E-04  0.315518945       2.60937959E-05
   1.00000000      0.279310346      0.951476991      0.932757020      0.369602114       2.26681630E-04  0.315489858       2.51214951E-05
   1.00000000      0.289655179      0.951478779      0.932758749      0.369573474       1.23368372E-04  0.315465361       2.43782997E-05
  0.989898980      0.300000012      0.951581776      0.932899714      0.369494259       9.15003620E-05  0.315391004       2.39443034E-05
  0.979797959      0.300000012      0.951886714      0.933318079      0.369283557       9.63627317E-05  0.315191001       2.37599015E-05
  0.969696999      0.300000012      0.952182353      0.933723688      0.369073927       1.00299549E-04  0.314992547       2.34842300E-05
  0.959595978      0.300000012      0.952466249      0.934113145      0.368870229       1.03811770E-04  0.314799964       2.31191516E-05
  0.949494958      0.300000012      0.952735722      0.934483290      0.368676454       1.07077161E-04  0.314616799       2.32402235E-05
  0.939393938      0.300000012      0.952988446      0.934830129      0.368495524       1.10261761E-04  0.314445734       2.30874866E-05
  0.929292917      0.300000012      0.953222275      0.935151041      0.368330419       1.13377158E-04  0.314289480       2.28323042E-05
  0.919191897      0.300000012      0.953435242      0.935443342      0.368183643       1.16425974E-04  0.314150214       2.25976110E-05
  0.909090936      0.300000012      0.953625262      0.935704172      0.368057281       1.19407625E-04  0.314029932       2.24094838E-05
  0.898989916      0.300000012      0.953790963      0.935931444      0.367953271       1.22200727E-04  0.313930333       2.19587237E-05
  0.888888896      0.300000012      0.953931034      0.936123312      0.367873579       1.24818762E-04  0.313853204       2.14315951E-05
  0.878787875      0.300000012      0.954044163      0.936278403      0.367819756       1.27161926E-04  0.313799888       2.10665166E-05
  0.868686855      0.300000012      0.954129934      0.936395586      0.367793143       1.29147520E-04  0.313771665       2.03233212E-05
  0.858585835      0.300000012      0.954187572      0.936474264      0.367794842       1.30670640E-04  0.313769370       1.97924674E-05
  0.848484874      0.300000012      0.954216957      0.936514497      0.367826104       1.31632347E-04  0.313794196       1.96117908E-05
  0.838383853      0.300000012      0.954218209      0.936515927      0.367887318       1.31985100E-04  0.313846380       1.93398446E-05
  0.828282833      0.300000012      0.954192162      0.936479628      0.367979020       1.31652923E-04  0.313926399       1.87754631E-05
  0.818181813      0.300000012      0.954139233      0.936406434      0.368101656       1.30615546E-04  0.314034611       1.82408839E-05
  0.808080792      0.300000012      0.954060555      0.936298132      0.368254989       1.28825253E-04  0.314170629       1.80788338E-05
  0.797979772      0.300000012      0.953957558      0.936156213      0.368438721       1.26272585E-04  0.314334214       1.75777823E-05
  0.787878811      0.300000012      0.953831732      0.935982943      0.368652493       1.22902449E-04  0.314524949       1.72127038E-05
  0.777777791      0.300000012      0.953684509      0.935780168      0.368895411       1.18752250E-04  0.314742029       1.66315585E-05
  0.767676771      0.300000012      0.953517675      0.935550630      0.369166881       1.13821632E-04  0.314984709       1.61882490E-05
  0.757575750      0.300000012      0.953333080      0.935296834      0.369465828       1.08162261E-04  0.315252006       1.59312040E-05
  0.747474730      0.300000012      0.953132331      0.935020745      0.369791389       1.01708611E-04  0.315543175       1.55400485E-05
  0.737373710      0.300000012      0.952916920      0.934724569      0.370142698       9.45929060E-05  0.315857261       1.51712447E-05
  0.727272749      0.300000012      0.952688873      0.934410810      0.370518744       8.68520438E-05  0.316193432       1.45342201E-05
  0.717171729      0.300000012      0.952449143      0.934081495      0.370918751       7.84950462E-05  0.316550702       1.43777579E-05
  0.707070708      0.300000012      0.952199459      0.933738053      0.371341795       6.96635907E-05  0.316928476       1.36755407E-05
  0.696969688      0.300000012      0.951940715      0.933382750      0.371786833       6.04803645E-05  0.317325562       1.35749578E-05
  0.686868668      0.300000012      0.951674163      0.933016539      0.372252852       5.12108600E-05  0.317741156       1.32638961E-05
  0.676767647      0.300000012      0.951401055      0.932641566      0.372738093       4.20721371E-05  0.318173647       1.30925328E-05
  0.666666687      0.300000012      0.951122820      0.932259500      0.373240232       3.35070436E-05  0.318620950       1.28597021E-05
  0.656565666      0.300000012      0.950840950      0.931872189      0.373756409       2.58416731E-05  0.319080591       1.22878700E-05
  0.646464646      0.300000012      0.950556934      0.931482077      0.374282241       1.96910078E-05  0.319548666       1.17719173E-05
  0.636363626      0.300000012      0.950272560      0.931091905      0.374812335       1.56460865E-05  0.320020407       1.16731972E-05
  0.626262605      0.300000012      0.949990451      0.930704534      0.375339240       1.43902453E-05  0.320489377       1.12745911E-05
  0.616161644      0.300000012      0.949712992      0.930323839      0.375854373       1.65039073E-05  0.320948035       1.11199915E-05
  0.606060624      0.300000012      0.949443281      0.929953635      0.376347333       2.26376651E-05  0.321387261       1.07642263E-05
  0.595959604      0.300000012      0.949184656      0.929598749      0.376806170       3.32671298E-05  0.321796685       1.04214996E-05
  0.585858583      0.300000012      0.948940575      0.929263830      0.377217799       4.85301898E-05  0.322164834       1.01309270E-05
  0.575757563      0.300000012      0.948714495      0.928953707      0.377568990       6.83393591E-05  0.322480202       9.94093716E-06
  0.565656543      0.300000012      0.948509634      0.928672850      0.377846777       9.21975152E-05  0.322731405       9.87201929E-06
  0.555555582      0.300000012      0.948329151      0.928425074      0.378039628       1.19140364E-04  0.322908491       9.47341323E-06
  0.545454562      0.300000012      0.948174894      0.928213358      0.378138393       1.47885265E-04  0.323003381       9.15303826E-06
  0.535353541      0.300000012      0.948048115      0.928039789      0.378136724       1.77032794E-04  0.323010594       9.36910510E-06
  0.525252521      0.300000012      0.947950304      0.927905321      0.378032357       2.05556935E-04  0.322928220       8.93697143E-06
  0.515151501      0.300000012      0.947881877      0.927811563      0.377824962       2.33338156E-04  0.322755724       8.94628465E-06
  0.505050480      0.300000012      0.947843969      0.927759290      0.377515465       2.60928849E-04  0.322494000       8.54767859E-06
  0.494949490      0.300000012      0.947837114      0.927749693      0.377105206       2.88554467E-04  0.322144032       8.33906233E-06
  0.484848499      0.300000012      0.947861016      0.927782297      0.376597464       3.15614947E-04  0.321708679       8.17887485E-06
  0.474747479      0.300000012      0.947915256      0.927856088      0.375997663       3.41965089E-04  0.321192771       7.56606460E-06
  0.464646459      0.300000012      0.947999001      0.927970350      0.375311196       3.68408684E-04  0.320600808       7.07618892E-06
  0.454545468      0.300000012      0.948111355      0.928124189      0.374542058       3.94934119E-04  0.319936246       6.91786408E-06
  0.444444448      0.300000012      0.948250949      0.928315222      0.373695552       4.19744640E-04  0.319203824       6.59748912E-06
  0.434343427      0.300000012      0.948415041      0.928539813      0.372780710       4.40383941E-04  0.318411469       6.23799860E-06
  0.424242437      0.300000012      0.948600590      0.928793967      0.371809185       4.55319474E-04  0.317569256       6.11692667E-06
  0.414141417      0.300000012      0.948804557      0.929073393      0.370794147       4.63884586E-04  0.316688687       5.87478280E-06
  0.404040396      0.300000012      0.949024260      0.929374158      0.369748980       4.66136960E-04  0.315781504       5.41657209E-06
  0.393939406      0.300000012      0.949257076      0.929693162      0.368685931       4.62523021E-04  0.314858198       5.15766442E-06
  0.383838385      0.300000012      0.949501038      0.930027246      0.367616177       4.53622954E-04  0.313928574       4.74788249E-06
  0.373737365      0.300000012      0.949754238      0.930374384      0.366549671       4.40205942E-04  0.313001126       4.63984907E-06
  0.363636374      0.300000012      0.950015306      0.930732310      0.365494788       4.23075020E-04  0.312083155       4.44799662E-06
  0.353535354      0.300000012      0.950283229      0.931099355      0.364458323       4.02830570E-04  0.311180711       3.96184623E-06
  0.343434334      0.300000012      0.950556934      0.931474328      0.363445997       3.80462938E-04  0.310298562       3.43285501E-06
  0.333333343      0.300000012      0.950835645      0.931856215      0.362462044       3.56543431E-04  0.309440404       2.96346843E-06
  0.323232323      0.300000012      0.951118469      0.932244062      0.361509949       3.31501447E-04  0.308609217       2.70828605E-06
  0.313131303      0.300000012      0.951404870      0.932636797      0.360592097       3.05798399E-04  0.307807177       2.36742198E-06
  0.303030312      0.300000012      0.951694012      0.933033228      0.359710723       2.79772619E-04  0.307036221       1.93901360E-06
  0.292929292      0.300000012      0.951985061      0.933432400      0.358867288       2.53801059E-04  0.306297600       1.57766044E-06
  0.282828271      0.300000012      0.952277184      0.933833063      0.358062923       2.28140969E-04  0.305592328       1.22375786E-06
  0.272727281      0.300000012      0.952569246      0.934233904      0.357298315       2.02957119E-04  0.304921091       1.02072954E-06
  0.262626261      0.300000012      0.952860177      0.934633374      0.356573999       1.78446644E-04  0.304284394       1.03004277E-06
  0.252525240      0.300000012      0.953148842      0.935029924      0.355890244       1.54875175E-04  0.303682506       1.14738941E-06
  0.242424250      0.300000012      0.953434229      0.935421765      0.355247289       1.32279965E-04  0.303115666       1.03935599E-06
  0.232323229      0.300000012      0.953714907      0.935807526      0.354644805       1.10922403E-04  0.302583784       1.19395554E-06
  0.222222224      0.300000012      0.953989804      0.936185300      0.354082376       9.07626745E-05  0.302086473       1.32620335E-06
  0.212121218      0.300000012      0.954257786      0.936553240      0.353559524       7.19877207E-05  0.301623493       1.11013651E-06
  0.202020198      0.300000012      0.954517603      0.936909795      0.353075564       5.47391901E-05  0.301194310       6.10947609E-07
  0.191919193      0.300000012      0.954767942      0.937253714      0.352629483       3.89357556E-05  0.300797999       4.52622771E-07
  0.181818187      0.300000012      0.955007493      0.937583029      0.352220118       2.47247517E-05  0.300433695       6.09084964E-07
  0.171717167      0.300000012      0.955235779      0.937896669      0.351846188       1.20407485E-05  0.300100446       4.32133675E-07
  0.161616161      0.300000012      0.955451906      0.938193440      0.351506233       1.07081291E-06  0.299796969       9.12696123E-08
  0.151515156      0.300000012      0.955654919      0.938472509      0.351198405      -8.32285241E-06  0.299521685       7.45058060E-09
  0.141414136      0.300000012      0.955844223      0.938732743      0.350921333      -1.61974313E-05  0.299273551      -7.45058060E-09
  0.131313130      0.300000012      0.956019402      0.938973725      0.350673109      -2.25836429E-05  0.299050897       1.28522515E-07
  0.121212125      0.300000012      0.956180096      0.939194798      0.350452185      -2.75122220E-05  0.298852414       2.68220901E-07
  0.111111112      0.300000012      0.956326306      0.939395666      0.350257218      -3.11512995E-05  0.298677027       2.23517418E-08
  0.101010099      0.300000012      0.956457615      0.939576089      0.350086659      -3.36948178E-05  0.298523426      -1.75088644E-07
   9.09090936E-02  0.300000012      0.956573725      0.939735830      0.349939704      -3.52076240E-05  0.298390865      -1.34110451E-07
   8.08080807E-02  0.300000012      0.956674576      0.939874589      0.349815577      -3.59081096E-05  0.298278719      -7.45058060E-08
   7.07070678E-02  0.300000012      0.956760108      0.939992189      0.349713683      -3.58780599E-05  0.298186541      -9.12696123E-08
   6.06060624E-02  0.300000012      0.956830204      0.940088689      0.349633843      -3.52287425E-05  0.298114061       3.72529030E-08
   5.05050495E-02  0.300000012      0.956884801      0.940163910      0.349575520      -3.39893086E-05  0.298060924       1.35973096E-07
   4.04040404E-02  0.300000012      0.956923783      0.940217555      0.349538237      -3.20354375E-05  0.298026711       1.60187483E-07
   3.03030312E-02  0.300000012      0.956947327      0.940249979      0.349521071      -2.92500099E-05  0.298010588       2.08616257E-07
   2.02020202E-02  0.300000012      0.956955433      0.940260708      0.349522114      -2.52783120E-05  0.298011035      -2.79396772E-07
   1.01010101E-02  0.300000012      0.956948459      0.940251172      0.349538714      -1.96791043E-05  0.298025608      -2.12341547E-07
   0.00000000      0.289655179      0.956933916      0.940231264      0.349565804      -3.10478317E-05  0.298049629      -6.51925802E-08
   0.00000000      0.279310346      0.956928670      0.940224111      0.349589646      -5.07372170E-05  0.298070252       5.58793545E-09
   0.00000000      0.268965513      0.956918180      0.940209687      0.349636137      -6.97351425E-05  0.298110545       2.60770321E-08
   0.00000000      0.258620679      0.956902683      0.940188468      0.349704415      -8.79098006E-05  0.298169732       5.21540642E-08
   0.00000000      0.248275861      0.956882298      0.940160394      0.349793464      -1.05313899E-04  0.298246920       2.23517418E-08
   0.00000000      0.237931028      0.956857383      0.940126181      0.349902511      -1.22200305E-04  0.298341483       1.37835741E-07
   0.00000000      0.227586210      0.956827939      0.940085649      0.350031108      -1.38274219E-04  0.298452973       5.77419996E-08
   0.00000000      0.217241377      0.956794262      0.940039277      0.350178242      -1.53584566E-04  0.298580527       0.00000000    
   0.00000000      0.206896558      0.956756413      0.939987242      0.350343138      -1.68144223E-04  0.298723489       5.58793545E-08
   0.00000000      0.196551725      0.956714571      0.939929545      0.350524843      -1.81880256E-04  0.298881024      -1.04308128E-07
   0.00000000      0.186206892      0.956668556      0.939866483      0.350722820      -1.94791253E-04  0.299052715       1.47148967E-07
   0.00000000      0.175862074      0.956619203      0.939798415      0.350935698      -2.06920420E-04  0.299237341      -1.67638063E-08
   0.00000000      0.165517241      0.956566334      0.939725637      0.351163000      -2.18286586E-04  0.299434483      -1.26659870E-07
   0.00000000      0.155172408      0.956510007      0.939648271      0.351403654      -2.28957157E-04  0.299643219       1.67638063E-08
   0.00000000      0.144827589      0.956450462      0.939566553      0.351656795      -2.39030182E-04  0.299862772       1.47148967E-07
   0.00000000      0.134482756      0.956387997      0.939480424      0.351921618      -2.48741737E-04  0.300092548      -5.02914190E-08
   0.00000000      0.124137931      0.956322491      0.939390481      0.352197677      -2.58200860E-04  0.300332040       1.04308128E-07
   0.00000000      0.113793105      0.956254184      0.939296484      0.352484465      -2.67551572E-04  0.300580949       3.35276127E-08
   0.00000000      0.103448279      0.956182957      0.939198554      0.352781892      -2.77201441E-04  0.300839037       2.60770321E-08
   0.00000000       9.31034461E-02  0.956108809      0.939096510      0.353089988      -2.87533127E-04  0.301106453      -7.45058060E-09
   0.00000000       8.27586204E-02  0.956031382      0.938990057      0.353409380      -2.98754894E-04  0.301383734      -3.16649675E-08
   0.00000000       7.24137947E-02  0.955950677      0.938879073      0.353740722      -3.11160111E-04  0.301671386      -7.45058060E-08
   0.00000000       6.20689653E-02  0.955866158      0.938762963      0.354085475      -3.25177069E-04  0.301970720       3.35276127E-08
   0.00000000       5.17241396E-02  0.955777466      0.938641012      0.354445845      -3.40812374E-04  0.302283674       8.00937414E-08
   0.00000000       4.13793102E-02  0.955683947      0.938512444      0.354824305      -3.57455167E-04  0.302612364       6.70552254E-08
   0.00000000       3.10344826E-02  0.955584943      0.938376248      0.355224460      -3.73034651E-04  0.302959919      -1.86264515E-09
   0.00000000       2.06896551E-02  0.955479920      0.938232005      0.355651140      -3.81879858E-04  0.303330511       1.34110451E-07
   0.00000000       1.03448275E-02  0.955368757      0.938079119      0.356110364      -3.70298745E-04  0.303729236       5.02914190E-08
   1.01942774E-02  -1.06002917E-05  0.955388963      0.938107073      0.356223434      -5.72849240E-04  0.303824604       1.99303031E-07
   2.03885511E-02  -4.05888240E-05  0.955597818      0.938394308      0.356000096      -1.17243861E-03  0.303622067       3.72529030E-07
   3.05827484E-02  -8.74972393E-05  0.955870390      0.938768983      0.355624676      -1.72282022E-03  0.303286493       2.70083547E-07
   4.07768898E-02  -1.49138228E-04  0.956189394      0.939207852      0.355140120      -2.20886781E-03  0.302855313       4.86150384E-07
   5.09709269E-02  -2.23550553E-04  0.956546605      0.939699113      0.354571253      -2.63211830E-03  0.302350104       5.43892384E-07
   6.11648858E-02  -3.08956922E-04  0.956936061      0.940234900      0.353934854      -2.99612596E-03  0.301785320       6.78002834E-07
   7.13587478E-02  -4.03728453E-04  0.957352698      0.940808117      0.353242874      -3.30442446E-03  0.301171482       7.04079866E-07
   8.15525427E-02  -5.06357115E-04  0.957792461      0.941413343      0.352504730      -3.56037682E-03  0.300516695       8.15838575E-07
   9.17462707E-02  -6.15430705E-04  0.958251297      0.942045152      0.351728171      -3.76663008E-03  0.299827814       1.21444464E-06
  0.101939946      -7.29613879E-04  0.958725631      0.942698240      0.350919396      -3.92548786E-03  0.299110293       1.45658851E-06
  0.112133577      -8.47629446E-04  0.959211648      0.943367541      0.350083441      -4.03847452E-03  0.298368692       1.66334212E-06
  0.122327171      -9.68243345E-04  0.959705770      0.944048166      0.349224865      -4.10717120E-03  0.297607005       1.88127160E-06
  0.132520750      -1.09024998E-03  0.960204601      0.944735467      0.348347157      -4.13234206E-03  0.296828508       2.13459134E-06
  0.142714337      -1.21245917E-03  0.960704863      0.945424974      0.347452849      -4.11440711E-03  0.296035498       2.54251063E-06
  0.152907923      -1.33368257E-03  0.961203516      0.946112216      0.346544176      -4.05354705E-03  0.295230091       2.69711018E-06
  0.163101539      -1.45272142E-03  0.961697578      0.946793139      0.345622361      -3.94942984E-03  0.294413596       2.71014869E-06
  0.173295200      -1.56835280E-03  0.962184250      0.947464287      0.344687730      -3.80124361E-03  0.293586403       3.01189721E-06
  0.183488905      -1.67931605E-03  0.962661266      0.948122442      0.343740255      -3.60795623E-03  0.292748600       3.51853669E-06
  0.193682685      -1.78429752E-03  0.963126600      0.948764741      0.342778981      -3.36789293E-03  0.291899621       4.15183604E-06
  0.203876525      -1.88191328E-03  0.963578880      0.949388623      0.341802031      -3.07878247E-03  0.291038096       4.20771539E-06
  0.214070454      -1.97069068E-03  0.964016497      0.949992776      0.340806872      -2.73791468E-03  0.290161937       4.73298132E-06
  0.224264458      -2.04904471E-03  0.964438856      0.950575769      0.339789808      -2.34158011E-03  0.289268166       4.96953726E-06
  0.234458551      -2.11525219E-03  0.964845479      0.951137304      0.338746190      -1.88542914E-03  0.288352966       5.35883009E-06
  0.244652733      -2.16741930E-03  0.965236604      0.951677382      0.337669998      -1.36389642E-03  0.287411392       5.64381480E-06
  0.254846990      -2.20344099E-03  0.965612710      0.952197134      0.336553782      -7.70011917E-04  0.286437362       6.26407564E-06
  0.265041292      -2.22095218E-03  0.965975463      0.952698529      0.335387945      -9.51609472E-05  0.285422832       6.81355596E-06
  0.275235593      -2.21726228E-03  0.966326773      0.953184366      0.334160656       6.71296089E-04  0.284358174       7.62008131E-06
  0.285429865      -2.18927371E-03  0.966669500      0.953658223      0.332857460       1.54273002E-03  0.283231527       8.11368227E-06
  0.295624018      -2.13337177E-03  0.967007339      0.954125524      0.331460118       2.53634946E-03  0.282027900       8.80286098E-06
  0.305817962      -2.04527588E-03  0.967345178      0.954593122      0.329946309       3.67379934E-03  0.280729324       9.77702439E-06
  0.316011488      -1.91983546E-03  0.967689037      0.955069602      0.328287691       4.98398859E-03  0.279312909       1.12410635E-05
  0.326204360      -1.75073801E-03  0.968046844      0.955565512      0.326448411       6.50495663E-03  0.277750373       1.27572566E-05
  0.336396307      -1.53008103E-03  0.968427956      0.956094027      0.324383229       8.28877278E-03  0.276006609       1.46571547E-05
  0.346586645      -1.24772848E-03  0.968844414      0.956672132      0.322033256       1.04088979E-02  0.274036825       1.72033906E-05
  0.356774658      -8.90274358E-04  0.969310999      0.957320452      0.319321781       1.29727060E-02  0.271785051       2.05934048E-05
  0.366958946      -4.39326104E-04  0.969847202      0.958066583      0.316147566       1.61649194E-02  0.269182354       2.54288316E-05
  0.377137065       1.33766516E-04  0.970494568      0.958969891      0.312421799       2.08139606E-02  0.266215354       3.36933881E-05
  0.387299746       9.32033930E-04  0.971132576      0.959863603      0.308784992       2.78332848E-02  0.263562620       4.51095402E-05
  0.397434235       2.03104783E-03  0.971505642      0.960395575      0.305959165       3.68169732E-02  0.261950225       6.14617020E-05
  0.407523632       3.48527054E-03  0.971512854      0.960429490      0.304240525       4.76578251E-02  0.261763185       8.64192843E-05
  0.417543113       5.36030158E-03  0.971040308      0.959815562      0.304053783       6.08291291E-02  0.263592362       1.28110871E-04
  0.427456856       7.73026003E-03  0.969818294      0.958196759      0.306345344       7.69882277E-02  0.268573970       2.03024596E-04
  0.437217921       1.06651187E-02  0.967339516      0.954905093      0.312918544       9.67338458E-02  0.278609246       3.44676897E-04
  0.446780443       1.41935814E-02  0.962696016      0.948741019      0.326953083      0.119761132      0.296436459       6.05218112E-04
  0.456144422       1.82216074E-02  0.954503715      0.937856793      0.353127122      0.142515942      0.324679494       1.03124976E-03
  0.465438336       2.24102195E-02  0.941624641      0.920715749      0.394677639      0.154808640      0.362351298       1.60406530E-03
  0.474928796       2.61229333E-02  0.925679982      0.899507463      0.444858551      0.142130941      0.400398284       2.20945850E-03
  0.484786808       2.86871437E-02  0.912115276      0.881598532      0.485217750      0.100539550      0.425981283       2.76596844E-03
  0.494905144       2.98680626E-02  0.905308068      0.872924685      0.502544641       4.58320826E-02  0.434329271       3.36593762E-03
  0.505094886       2.98680626E-02  0.904135525      0.871970534      0.499767870      -7.52932578E-03  0.430149555       4.08679992E-03
  0.515213192       2.86871418E-02  0.905368030      0.874610007      0.481524467      -6.12799376E-02  0.417396069       5.20201400E-03
  0.525071204       2.61229314E-02  0.909016430      0.880922079      0.447296768     -0.111958645      0.395862252       6.76284730E-03
  0.534561634       2.24102195E-02  0.916717708      0.892695785      0.402839512     -0.142631561      0.365999311       8.22853297E-03
  0.543855608       1.82216056E-02  0.927598417      0.908421457      0.359710574     -0.144166052      0.330957264       9.17211175E-03
  0.553219557       1.41935805E-02  0.938036621      0.923218191      0.325988591     -0.125553846      0.297598809       9.66315903E-03
  0.562782109       1.06651178E-02  0.945405006      0.933600545      0.303605914     -0.101536684      0.272268355       9.89197195E-03
  0.572543144       7.73025956E-03  0.949691772      0.939630330      0.290517598      -8.00589919E-02  0.256044507       9.99617111E-03
  0.582456887       5.36030112E-03  0.951895058      0.942738473      0.283715695      -6.27545714E-02  0.246768847       1.00543415E-02
  0.592476368       3.48527008E-03  0.952850342      0.944102108      0.280902922      -4.90391329E-02  0.242110878       1.00954119E-02