 title = "grid"
                                   variables = "x","y","rho","P","u","v","M","S"
 zone n=        3000  e =        5742  et=quadrilateral, f=fepoint
   0.00000000       0.00000000      0.956971407      0.940283060      0.349199772      -2.82525783E-04  0.297735244       1.50874257E-07
   1.00000000       0.00000000      0.944688559      0.932474852      0.321785390       5.50675148E-04  0.273734003       9.74682905E-03
   1.00000000      0.300000012      0.951098740      0.932235479      0.368012011      -7.50019099E-05  0.314157873       2.24839896E-05
   0.00000000      0.300000012      0.956548572      0.939701200      0.351256281       7.75806257E-06  0.299515098      -1.73225999E-07
   1.00000000       1.03448275E-02  0.946183205      0.932520330      0.328424633       7.47931132E-04  0.279596239       7.58234970E-03
   1.00000000       2.06896551E-02  0.947890043      0.932555020      0.336571455       8.92067386E-04  0.286785096       5.09633683E-03
   1.00000000       3.10344826E-02  0.949012935      0.932574570      0.342838526       9.36040771E-04  0.292295098       3.45984660E-03
   1.00000000       4.13793102E-02  0.949767411      0.932582915      0.347958446       9.15053184E-04  0.296776682       2.35624053E-03
   1.00000000       5.17241396E-02  0.950276077      0.932582915      0.352172136       8.51579651E-04  0.300450832       1.60664693E-03
   1.00000000       6.20689653E-02  0.950616539      0.932576418      0.355618596       7.60881987E-04  0.303446352       1.09814480E-03
   1.00000000       7.24137947E-02  0.950841725      0.932564974      0.358404994       6.53678435E-04  0.305861861       7.54259527E-04
   1.00000000       8.27586204E-02  0.950987995      0.932549238      0.360625356       5.38154447E-04  0.307782799       5.22075221E-04
   1.00000000       9.31034461E-02  0.951079845      0.932530344      0.362367839       4.20384982E-04  0.309287906       3.66615131E-04
   1.00000000      0.103448279      0.951135159      0.932509065      0.363715768       3.05210095E-04  0.310450852       2.62379646E-04
   1.00000000      0.113793105      0.951165736      0.932485819      0.364745289       1.95852830E-04  0.311338425       1.92424282E-04
   1.00000000      0.124137931      0.951179981      0.932461202      0.365524381       9.50480971E-05  0.312009871       1.45019963E-04
   1.00000000      0.134482756      0.951183736      0.932435811      0.366110623       4.56275075E-06  0.312515140       1.12242997E-04
   1.00000000      0.144827589      0.951180458      0.932410061      0.366550177      -7.42474804E-05  0.312894136       8.94926488E-05
   1.00000000      0.155172408      0.951173067      0.932384312      0.366880268      -1.40501477E-04  0.313179016       7.27903098E-05
   1.00000000      0.165517241      0.951162577      0.932359040      0.367129773      -1.93959509E-04  0.313394547       6.10724092E-05
   1.00000000      0.175862074      0.951150835      0.932334542      0.367320240      -2.34498380E-04  0.313559383       5.20870090E-05
   1.00000000      0.186206892      0.951138437      0.932311177      0.367468029      -2.62585963E-04  0.313687414       4.52548265E-05
   1.00000000      0.196551725      0.951125920      0.932289064      0.367584735      -2.78683059E-04  0.313788712       4.00152057E-05
   1.00000000      0.206896558      0.951113880      0.932268679      0.367678493      -2.83682923E-04  0.313870162       3.58205289E-05
   1.00000000      0.217241377      0.951102436      0.932249963      0.367755413      -2.78627471E-04  0.313937098       3.26167792E-05
   1.00000000      0.227586210      0.951092303      0.932233274      0.367819250      -2.64634436E-04  0.313992739       2.96439976E-05
   1.00000000      0.237931028      0.951083362      0.932218969      0.367872834      -2.43141709E-04  0.314039409       2.74386257E-05
   1.00000000      0.248275861      0.951076090      0.932206869      0.367918074      -2.15820517E-04  0.314078838       2.51401216E-05
   1.00000000      0.258620679      0.951070130      0.932197154      0.367955774      -1.84398974E-04  0.314111650       2.35177577E-05
   1.00000000      0.268965513      0.951065779      0.932190061      0.367986292      -1.50900931E-04  0.314138174       2.23051757E-05
   1.00000000      0.279310346      0.951062858      0.932185948      0.368009478      -1.17702650E-04  0.314158171       2.21952796E-05
   1.00000000      0.289655179      0.951061904      0.932184637      0.368025005      -8.75380356E-05  0.314171493       2.21636146E-05
  0.989898980      0.300000012      0.950930059      0.932003736      0.368088454      -7.92623905E-05  0.314234346       2.22343951E-05
  0.979797959      0.300000012      0.950537205      0.931464314      0.368265659      -8.28235716E-05  0.314411670       2.17836350E-05
  0.969696999      0.300000012      0.950152099      0.930935442      0.368442804      -8.60446598E-05  0.314588517       2.11521983E-05
  0.959595978      0.300000012      0.949776947      0.930420518      0.368616670      -8.92637254E-05  0.314761907       2.07535923E-05
  0.949494958      0.300000012      0.949415028      0.929923773      0.368784428      -9.27534857E-05  0.314929217       2.02879310E-05
  0.939393938      0.300000012      0.949068606      0.929448187      0.368944287      -9.67161031E-05  0.315088838       1.96583569E-05
  0.929292917      0.300000012      0.948739827      0.928997099      0.369094908      -1.01270598E-04  0.315239400       1.92914158E-05
  0.919191897      0.300000012      0.948430777      0.928573072      0.369235367      -1.06538253E-04  0.315379947       1.88443810E-05
  0.909090936      0.300000012      0.948143005      0.928178430      0.369365215      -1.12499118E-04  0.315510035       1.86655670E-05
  0.898989916      0.300000012      0.947878063      0.927815020      0.369484693      -1.19318698E-04  0.315629810       1.82837248E-05
  0.888888896      0.300000012      0.947636604      0.927483857      0.369594395      -1.26982355E-04  0.315739661       1.79372728E-05
  0.878787875      0.300000012      0.947419465      0.927185953      0.369695216      -1.35568596E-04  0.315840304       1.75163150E-05
  0.868686855      0.300000012      0.947226822      0.926921666      0.369788378      -1.44984573E-04  0.315932840       1.71139836E-05
  0.858585835      0.300000012      0.947058678      0.926691115      0.369875431      -1.55307062E-04  0.316018462       1.69295818E-05
  0.848484874      0.300000012      0.946914732      0.926493704      0.369958401      -1.66478087E-04  0.316099018       1.66948885E-05
  0.838383853      0.300000012      0.946794569      0.926328897      0.370039165      -1.78521659E-04  0.316176087       1.64695084E-05
  0.828282833      0.300000012      0.946697414      0.926195681      0.370120108      -1.91385596E-04  0.316251755       1.63391232E-05
  0.818181813      0.300000012      0.946622550      0.926092684      0.370203555      -2.05057630E-04  0.316328138       1.57896429E-05
  0.808080792      0.300000012      0.946568906      0.926018536      0.370292306      -2.19462323E-04  0.316407681       1.50613487E-05
  0.797979772      0.300000012      0.946535110      0.925971925      0.370388985      -2.34588326E-04  0.316492617       1.47223473E-05
  0.787878811      0.300000012      0.946519613      0.925950468      0.370496392      -2.50484940E-04  0.316585481       1.45249069E-05
  0.777777791      0.300000012      0.946521044      0.925952256      0.370617628      -2.66923453E-04  0.316689014       1.42678618E-05
  0.767676771      0.300000012      0.946537912      0.925975263      0.370755613      -2.83932575E-04  0.316805780       1.42212957E-05
  0.757575750      0.300000012      0.946568489      0.926016927      0.370913386      -3.01477674E-04  0.316938668       1.39679760E-05
  0.747474730      0.300000012      0.946611106      0.926075101      0.371093899      -3.19366052E-04  0.317090064       1.37425959E-05
  0.737373710      0.300000012      0.946664095      0.926147521      0.371299744      -3.37415579E-04  0.317262441       1.35991722E-05
  0.727272749      0.300000012      0.946725667      0.926231444      0.371533066      -3.55474243E-04  0.317457736       1.31763518E-05
  0.717171729      0.300000012      0.946793973      0.926324666      0.371795803      -3.73254647E-04  0.317677766       1.27516687E-05
  0.707070708      0.300000012      0.946867645      0.926425219      0.372089207      -3.90473724E-04  0.317923605       1.24089420E-05
  0.696969688      0.300000012      0.946945131      0.926531076      0.372413695      -4.06713400E-04  0.318195701       1.20736659E-05
  0.686868668      0.300000012      0.947025239      0.926640630      0.372768492      -4.21577599E-04  0.318493485       1.18575990E-05
  0.676767647      0.300000012      0.947107136      0.926752806      0.373151958      -4.34559362E-04  0.318815649       1.18780881E-05
  0.666666687      0.300000012      0.947190583      0.926866829      0.373561054      -4.45115846E-04  0.319159567       1.15316361E-05
  0.656565666      0.300000012      0.947275400      0.926982820      0.373991221      -4.52895911E-04  0.319521427       1.13621354E-05
  0.646464646      0.300000012      0.947361767      0.927100956      0.374436736      -4.57185844E-04  0.319896251       1.11255795E-05
  0.636363626      0.300000012      0.947450876      0.927222490      0.374890357      -4.57502378E-04  0.320277900       1.05351210E-05
  0.626262605      0.300000012      0.947543800      0.927349687      0.375343442      -4.53358080E-04  0.320658684       1.04084611E-05
  0.616161644      0.300000012      0.947642803      0.927485108      0.375785917      -4.44351404E-04  0.321030051       1.01495534E-05
  0.606060624      0.300000012      0.947750390      0.927632272      0.376206487      -4.29756677E-04  0.321382046       9.86270607E-06
  0.595959604      0.300000012      0.947869480      0.927795053      0.376592845      -4.09266533E-04  0.321704060       9.41567123E-06
  0.585858583      0.300000012      0.948003113      0.927977800      0.376931846      -3.82919039E-04  0.321984589       8.97608697E-06
  0.575757563      0.300000012      0.948154449      0.928184807      0.377210587      -3.50982911E-04  0.322212458       8.58493149E-06
  0.565656543      0.300000012      0.948326290      0.928420186      0.377416760      -3.13997414E-04  0.322376907       8.42288136E-06
  0.555555582      0.300000012      0.948521078      0.928687155      0.377539665      -2.72802630E-04  0.322468609       8.39680433E-06
  0.545454562      0.300000012      0.948740721      0.928988218      0.377570003      -2.28568664E-04  0.322479606       8.37258995E-06
  0.535353541      0.300000012      0.948986232      0.929324865      0.377501011      -1.82601681E-04  0.322403908       8.48248601E-06
  0.525252521      0.300000012      0.949258089      0.929697454      0.377328217      -1.36412506E-04  0.322237939       8.33719969E-06
  0.515151501      0.300000012      0.949556112      0.930105984      0.377049088      -9.10195740E-05  0.321979374       8.19750130E-06
  0.505050480      0.300000012      0.949879348      0.930549204      0.376663119      -4.69464248E-05  0.321627825       8.10995698E-06
  0.494949490      0.300000012      0.950226605      0.931025803      0.376171529      -3.99520377E-06  0.321184546       8.39121640E-06
  0.484848499      0.300000012      0.950596333      0.931533158      0.375577211       3.78290315E-05  0.320652127       8.57003033E-06
  0.474747479      0.300000012      0.950986087      0.932067633      0.374885857       7.82169445E-05  0.320035696       8.26455653E-06
  0.464646459      0.300000012      0.951392829      0.932625890      0.374104142       1.17764997E-04  0.319341034       8.40798020E-06
  0.454545468      0.300000012      0.951813996      0.933203995      0.373238951       1.56615381E-04  0.318574309       8.48621130E-06
  0.444444448      0.300000012      0.952246845      0.933797956      0.372298509       1.93846325E-04  0.317742735       8.17887485E-06
  0.434343427      0.300000012      0.952687085      0.934402406      0.371293873       2.27650991E-04  0.316856056       8.17701221E-06
  0.424242437      0.300000012      0.953130901      0.935011327      0.370237976       2.56757659E-04  0.315925628       7.57351518E-06
  0.414141417      0.300000012      0.953573406      0.935618639      0.369145215       2.80504697E-04  0.314964026       7.09667802E-06
  0.404040396      0.300000012      0.954010487      0.936218500      0.368029982       2.98555533E-04  0.313983828       6.44102693E-06
  0.393939406      0.300000012      0.954437733      0.936805189      0.366905779       3.11322219E-04  0.312996775       6.08526170E-06
  0.383838385      0.300000012      0.954852045      0.937374055      0.365785182       3.19130952E-04  0.312013835       5.54136932E-06
  0.373737365      0.300000012      0.955250263      0.937920868      0.364679396       3.22561915E-04  0.311044753       4.98630106E-06
  0.363636374      0.300000012      0.955629826      0.938442051      0.363597959       3.22185399E-04  0.310097843       4.32133675E-06
  0.353535354      0.300000012      0.955988228      0.938934386      0.362549126       3.18695820E-04  0.309180200       3.89106572E-06
  0.343434334      0.300000012      0.956323802      0.939395666      0.361539304       3.12793098E-04  0.308297396       3.67499888E-06
  0.333333343      0.300000012      0.956635475      0.939824343      0.360573381       3.05066962E-04  0.307453662       3.72901559E-06
  0.323232323      0.300000012      0.956922352      0.940218687      0.359655172       2.95903708E-04  0.306652397       3.41422856E-06
  0.313131303      0.300000012      0.957183599      0.940577924      0.358787507       2.85657006E-04  0.305895895       3.30619514E-06
  0.303030312      0.300000012      0.957418859      0.940901101      0.357972175       2.74720136E-04  0.305185854       2.77906656E-06
  0.292929292      0.300000012      0.957627833      0.941188455      0.357210279       2.63442402E-04  0.304523021       2.56113708E-06
  0.282828271      0.300000012      0.957810581      0.941439569      0.356502116       2.51909369E-04  0.303907752       2.23331153E-06
  0.272727281      0.300000012      0.957967281      0.941654801      0.355847657       2.40346417E-04  0.303339988       1.80490315E-06
  0.262626261      0.300000012      0.958098114      0.941834688      0.355245978       2.29024619E-04  0.302818835       1.62981451E-06
  0.252525240      0.300000012      0.958203733      0.941979468      0.354695976       2.17885041E-04  0.302343428       1.00955367E-06
  0.242424250      0.300000012      0.958284438      0.942090571      0.354196072       2.07093181E-04  0.301912218       1.02818012E-06
  0.232323229      0.300000012      0.958341539      0.942168951      0.353744388       1.96672583E-04  0.301523626       7.67409801E-07
  0.222222224      0.300000012      0.958375752      0.942215741      0.353338957       1.86627934E-04  0.301175952       5.12227416E-07
  0.212121218      0.300000012      0.958388329      0.942232907      0.352977484       1.76956775E-04  0.300867081       3.53902578E-07
  0.202020198      0.300000012      0.958380401      0.942222059      0.352657586       1.67636521E-04  0.300594866       3.74391675E-07
  0.191919193      0.300000012      0.958353519      0.942185163      0.352376819       1.58541690E-04  0.300357223       5.06639481E-07
  0.181818187      0.300000012      0.958309412      0.942124426      0.352132708       1.49670886E-04  0.300151944       4.89875674E-07
  0.171717167      0.300000012      0.958249748      0.942042172      0.351922989       1.40922770E-04  0.299976915       3.59490514E-07
  0.161616161      0.300000012      0.958176136      0.941940725      0.351745337       1.32268862E-04  0.299830109       2.29105353E-07
  0.151515156      0.300000012      0.958090484      0.941822946      0.351597250       1.23617632E-04  0.299709231       3.37138772E-07
  0.141414136      0.300000012      0.957994640      0.941691041      0.351476371       1.14868955E-04  0.299612164       3.33413482E-07
  0.131313130      0.300000012      0.957890689      0.941547990      0.351380378       1.06092099E-04  0.299536854       3.18512321E-07
  0.121212125      0.300000012      0.957780540      0.941396356      0.351306885       9.74058785E-05  0.299481064       2.19792128E-07
  0.111111112      0.300000012      0.957665741      0.941238463      0.351253241       8.87236456E-05  0.299442530       3.29688191E-07
  0.101010099      0.300000012      0.957548440      0.941076815      0.351216882       8.02256254E-05  0.299418926       8.75443220E-08
   9.09090936E-02  0.300000012      0.957430065      0.940913737      0.351194888       7.19903110E-05  0.299407601      -2.17929482E-07
   8.08080807E-02  0.300000012      0.957312047      0.940751493      0.351184398       6.40762009E-05  0.299406022      -1.86264515E-08
   7.07070678E-02  0.300000012      0.957196236      0.940592349      0.351182610       5.64968832E-05  0.299411684       1.45286322E-07
   6.06060624E-02  0.300000012      0.957083881      0.940437555      0.351186812       4.91747196E-05  0.299422354      -9.12696123E-08
   5.05050495E-02  0.300000012      0.956975937      0.940288961      0.351194829       4.20297220E-05  0.299435943      -2.38418579E-07
   4.04040404E-02  0.300000012      0.956873238      0.940147936      0.351205081       3.49369329E-05  0.299451083       5.21540642E-08
   3.03030312E-02  0.300000012      0.956776798      0.940015137      0.351216644       2.75203802E-05  0.299466968      -9.12696123E-08
   2.02020202E-02  0.300000012      0.956686735      0.939891636      0.351229817       1.95990051E-05  0.299483806       3.12924385E-07
   1.01010101E-02  0.300000012      0.956603825      0.939777613      0.351244926       1.10866167E-05  0.299501896       3.46451998E-07
   0.00000000      0.289655179      0.956545353      0.939696908      0.351251304       3.24331777E-05  0.299511015       4.09781933E-08
   0.00000000      0.279310346      0.956551850      0.939705908      0.351223409       5.96208811E-05  0.299486816       1.15483999E-07
   0.00000000      0.268965513      0.956565917      0.939725220      0.351163864       8.43240414E-05  0.299435169       5.02914190E-08
   0.00000000      0.258620679      0.956586778      0.939753830      0.351075441       1.07054839E-04  0.299358517      -6.51925802E-08
   0.00000000      0.248275861      0.956613779      0.939790964      0.350960165       1.27853928E-04  0.299258500      -7.26431608E-08
   0.00000000      0.237931028      0.956646383      0.939835846      0.350820452       1.46402555E-04  0.299137354       2.23517418E-08
   0.00000000      0.227586210      0.956683934      0.939887643      0.350658745       1.62454904E-04  0.298997104       1.45286322E-07
   0.00000000      0.217241377      0.956726074      0.939945340      0.350477636       1.75721681E-04  0.298840076      -1.17346644E-07
   0.00000000      0.206896558      0.956771672      0.940008223      0.350280523       1.85971323E-04  0.298669159       4.65661287E-08
   0.00000000      0.196551725      0.956820071      0.940074742      0.350070685       1.93011234E-04  0.298487216       2.60770321E-08
   0.00000000      0.186206892      0.956870258      0.940143824      0.349851698       1.96583438E-04  0.298297375       1.86264515E-08
   0.00000000      0.175862074      0.956921399      0.940214276      0.349627614       1.96568464E-04  0.298103094       1.95577741E-07
   0.00000000      0.165517241      0.956972778      0.940284789      0.349402279       1.92608364E-04  0.297907799       1.11758709E-08
   0.00000000      0.155172408      0.957022965      0.940353930      0.349180281       1.84662567E-04  0.297715366       6.70552254E-08
   0.00000000      0.144827589      0.957071126      0.940420210      0.348966062       1.72581931E-04  0.297529697       1.54599547E-07
   0.00000000      0.134482756      0.957116127      0.940481961      0.348764062       1.56161754E-04  0.297354698      -4.09781933E-08
   0.00000000      0.124137931      0.957156837      0.940538049      0.348579019       1.35489929E-04  0.297194391       5.58793545E-08
   0.00000000      0.113793105      0.957192242      0.940586627      0.348415852       1.10380679E-04  0.297053099      -5.21540642E-08
   0.00000000      0.103448279      0.957221031      0.940626264      0.348279476       8.06854587E-05  0.296935022      -9.49949026E-08
   0.00000000       9.31034461E-02  0.957242012      0.940655291      0.348174840       4.64252953E-05  0.296844482       1.28522515E-07
   0.00000000       8.27586204E-02  0.957254171      0.940672040      0.348107189       7.55023120E-06  0.296786070       1.39698386E-07
   0.00000000       7.24137947E-02  0.957256377      0.940675020      0.348081440      -3.57280442E-05  0.296763986       5.96046448E-08
   0.00000000       6.20689653E-02  0.957247496      0.940662622      0.348102659      -8.33047961E-05  0.296782643      -1.02445483E-07
   0.00000000       5.17241396E-02  0.957226038      0.940633118      0.348176301      -1.34759117E-04  0.296846777      -1.22934580E-07
   0.00000000       4.13793102E-02  0.957190812      0.940584779      0.348307699      -1.88593884E-04  0.296960980       5.21540642E-08
   0.00000000       3.10344826E-02  0.957141221      0.940516591      0.348502070      -2.41455797E-04  0.297129810       9.31322575E-08
   0.00000000       2.06896551E-02  0.957076848      0.940427899      0.348764539      -2.86087336E-04  0.297357619      -5.96046448E-08
   0.00000000       1.03448275E-02  0.956997693      0.940319121      0.349100441      -3.05479625E-04  0.297648937       9.31322575E-09
   1.01942774E-02  -1.06002917E-05  0.956925690      0.940220177      0.349242657      -5.03424904E-04  0.297774851       1.49011612E-07
   2.03885511E-02  -4.05888240E-05  0.956805885      0.940055490      0.349248171      -1.06086791E-03  0.297788084       2.36555934E-07
   3.05827484E-02  -8.74972393E-05  0.956696033      0.939904511      0.349163264      -1.57352793E-03  0.297724128       3.57627869E-07
   4.07768898E-02  -1.49138228E-04  0.956582546      0.939748824      0.349027485      -2.02550157E-03  0.297617346       7.89761543E-07
   5.09709269E-02  -2.23550553E-04  0.956460655      0.939581215      0.348861396      -2.41826987E-03  0.297485441       8.69855285E-07
   6.11648858E-02  -3.08956922E-04  0.956328213      0.939399183      0.348676443      -2.75524263E-03  0.297338068       9.87201929E-07
   7.13587478E-02  -4.03728453E-04  0.956184685      0.939201891      0.348478824      -3.04000732E-03  0.297180504       1.06729567E-06
   8.15525427E-02  -5.06357115E-04  0.956030369      0.938989937      0.348271638      -3.27597605E-03  0.297015190       1.29453838E-06
   9.17462707E-02  -6.15430705E-04  0.955866575      0.938764870      0.348056257      -3.46572394E-03  0.296843231       1.51060522E-06
  0.101939946      -7.29613879E-04  0.955694675      0.938528657      0.347832412      -3.61166243E-03  0.296664298       1.65402889E-06
  0.112133577      -8.47629446E-04  0.955516517      0.938284159      0.347598821      -3.71538522E-03  0.296476990       2.11596489E-06
  0.122327171      -9.68243345E-04  0.955334246      0.938033819      0.347353995      -3.77833005E-03  0.296280056       2.28732824E-06
  0.132520750      -1.09024998E-03  0.955150306      0.937780976      0.347095609      -3.80125968E-03  0.296071291       2.35624611E-06
  0.142714337      -1.21245917E-03  0.954967022      0.937529206      0.346821129      -3.78461322E-03  0.295848370       2.49035656E-06
  0.152907923      -1.33368257E-03  0.954787016      0.937281907      0.346527606      -3.72830452E-03  0.295608610       2.61701643E-06
  0.163101539      -1.45272142E-03  0.954612970      0.937043011      0.346211582      -3.63186095E-03  0.295348912       2.91317701E-06
  0.173295200      -1.56835280E-03  0.954447746      0.936816037      0.345869243      -3.49411624E-03  0.295065880       2.98209488E-06
  0.183488905      -1.67931605E-03  0.954293787      0.936604917      0.345496565      -3.31371278E-03  0.294755906       3.43844295E-06
  0.193682685      -1.78429752E-03  0.954153836      0.936412871      0.345088899      -3.08856531E-03  0.294414967       3.67127359E-06
  0.203876525      -1.88191328E-03  0.954030693      0.936244249      0.344641000      -2.81600305E-03  0.294038385       4.28222120E-06
  0.214070454      -1.97069068E-03  0.953926861      0.936101973      0.344147027      -2.49278010E-03  0.293621182       4.69759107E-06
  0.224264458      -2.04904471E-03  0.953845263      0.935989916      0.343600452      -2.11475557E-03  0.293157697       4.79258597E-06
  0.234458551      -2.11525219E-03  0.953788102      0.935911596      0.342993796      -1.67695165E-03  0.292641521       5.01424074E-06
  0.244652733      -2.16741930E-03  0.953758001      0.935870588      0.342318654      -1.17329415E-03  0.292065561       5.36255538E-06
  0.254846990      -2.20344099E-03  0.953757465      0.935870469      0.341565311      -5.96438418E-04  0.291421443       6.00889325E-06
  0.265041292      -2.22095218E-03  0.953789413      0.935915232      0.340722471       6.27871341E-05  0.290699810       6.94766641E-06
  0.275235593      -2.21726228E-03  0.953857124      0.936008751      0.339776754       8.15484382E-04  0.289889574       7.45989382E-06
  0.285429865      -2.18927371E-03  0.953963816      0.936155915      0.338712782       1.67556573E-03  0.288977981       8.09319317E-06
  0.295624018      -2.13337177E-03  0.954113245      0.936361849      0.337511510       2.66063656E-03  0.287949413       8.80099833E-06
  0.305817962      -2.04527588E-03  0.954309881      0.936632872      0.336150199       3.79295670E-03  0.286785394       9.69693065E-06
  0.316011488      -1.91983546E-03  0.954559267      0.936976731      0.334600419       5.10205422E-03  0.285463095       1.09765679E-05
  0.326204360      -1.75073801E-03  0.954868078      0.937402487      0.332826853       6.62660412E-03  0.283954650       1.23623759E-05
  0.336396307      -1.53008103E-03  0.955244601      0.937921643      0.330784380       8.41962174E-03  0.282225102       1.40853226E-05
  0.346586645      -1.24772848E-03  0.955699265      0.938548982      0.328414440       1.05558550E-02  0.280230016       1.65291131E-05
  0.356774658      -8.90274358E-04  0.956245244      0.939302683      0.325640678       1.31445751E-02  0.277913719       1.97365880E-05
  0.366958946      -4.39326104E-04  0.956900418      0.940208197      0.322361112       1.63734034E-02  0.275207013       2.43540853E-05
  0.377137065       1.33766516E-04  0.957704544      0.941322088      0.318486869       2.10843012E-02  0.272096992       3.24565917E-05
  0.387299746       9.32033930E-04  0.958530247      0.942469537      0.314673722       2.82070376E-02  0.269279659       4.41092998E-05
  0.397434235       2.03104783E-03  0.959112346      0.943286359      0.311662853       3.73265296E-02  0.267501742       6.05247915E-05
  0.407523632       3.48527054E-03  0.959345341      0.943630636      0.309759051       4.83281910E-02  0.267158449       8.53445381E-05
  0.417543113       5.36030158E-03  0.959110558      0.943346560      0.309396923       6.16878793E-02  0.268853515       1.26965344E-04
  0.427456856       7.73026003E-03  0.958132088      0.942071021      0.311542839       7.80684054E-02  0.273746818       2.02843919E-04
  0.437217921       1.06651187E-02  0.955891669      0.939123213      0.318034679       9.80723873E-02  0.283778101       3.46329063E-04
  0.446780443       1.41935814E-02  0.951458156      0.933279276      0.332118511      0.121390589      0.301749617       6.12616539E-04
  0.456144422       1.82216074E-02  0.943411529      0.922651589      0.358577907      0.144429579      0.330368191       1.05013885E-03
  0.465438336       2.24102195E-02  0.930570304      0.905652940      0.400766224      0.156882435      0.368706048       1.64161250E-03
  0.474928796       2.61229333E-02  0.914563358      0.884473205      0.451910198      0.144035727      0.407626122       2.26888806E-03
  0.484786808       2.86871437E-02  0.900961637      0.866609216      0.493246049      0.101810016      0.434011132       2.84250453E-03
  0.494905144       2.98680626E-02  0.894293964      0.858170629      0.511203349       4.61714454E-02  0.442840368       3.45672667E-03
  0.505094886       2.98680626E-02  0.893441260      0.857654929      0.508629084      -8.15335847E-03  0.438803077       4.19110060E-03
  0.515213192       2.86871418E-02  0.895099342      0.860862374      0.490231305      -6.29013777E-02  0.425943136       5.32812625E-03
  0.525071204       2.61229314E-02  0.899293184      0.867896318      0.455434799     -0.114535436      0.404013306       6.92162663E-03
  0.534561634       2.24102195E-02  0.907674074      0.880561411      0.410093606     -0.145822316      0.373472005       8.42223316E-03
  0.543855608       1.82216056E-02  0.919307530      0.897276938      0.366043717     -0.147434428      0.337584287       9.39766318E-03
  0.553219557       1.41935805E-02  0.930473387      0.913044512      0.331562698     -0.128489092      0.303382009       9.91589949E-03
  0.562782109       1.06651178E-02  0.938485444      0.924293637      0.308635801     -0.104008183      0.277363151       1.01576038E-02
  0.572543144       7.73025956E-03  0.943343580      0.931087434      0.295162737      -8.21043029E-02  0.260627955       1.02524757E-02
  0.582456887       5.36030112E-03  0.946082115      0.934897721      0.288047194      -6.44488409E-02  0.250951231       1.02781206E-02
  0.592476368       3.48527008E-03  0.947578013      0.936950266      0.284911156      -5.04414737E-02  0.245921493       1.02593508E-02