 title = "grid"
                                   variables = "x","y","rho","P","u","v","M","S"
 zone n=        3000  e =        5742  et=quadrilateral, f=fepoint
   0.00000000       0.00000000      0.955912352      0.938826323      0.353264451      -2.42763155E-04  0.301267624      -1.15483999E-07
   1.00000000       0.00000000      0.944546044      0.932259202      0.322225869       5.79242595E-04  0.274119735       9.72682238E-03
   1.00000000      0.300000012      0.951233566      0.932418585      0.363430202      -2.05603101E-05  0.310238093       2.04592943E-05
   0.00000000      0.300000012      0.956976652      0.940290272      0.349477917      -1.32702698E-05  0.297971964       1.39698386E-07
   1.00000000       1.03448275E-02  0.946041107      0.932324529      0.328839511       8.73012468E-04  0.279958069       7.58260675E-03
   1.00000000       2.06896551E-02  0.947743237      0.932366490      0.336949766       1.12892827E-03  0.287114799       5.11104986E-03
   1.00000000       3.10344826E-02  0.948872745      0.932395697      0.343143404       1.27277535E-03  0.292562366       3.47483903E-03
   1.00000000       4.13793102E-02  0.949639082      0.932415903      0.348155737       1.34187448E-03  0.296952665       2.36626156E-03
   1.00000000       5.17241396E-02  0.950161934      0.932430327      0.352232784       1.35935855E-03  0.300510466       1.61113404E-03
   1.00000000       6.20689653E-02  0.950517416      0.932440579      0.355516076       1.34073419E-03  0.303366631       1.09848194E-03
   1.00000000       7.24137947E-02  0.950757980      0.932448030      0.358116537       1.29640638E-03  0.305622905       7.52182677E-04
   1.00000000       8.27586204E-02  0.950919688      0.932452977      0.360130697       1.23407086E-03  0.307366937       5.19374385E-04
   1.00000000       9.31034461E-02  0.951027572      0.932456255      0.361650467       1.15945470E-03  0.308680743       3.64100561E-04
   1.00000000      0.103448279      0.951099575      0.932458162      0.362761736       1.07709621E-03  0.309640467       2.60125846E-04
   1.00000000      0.113793105      0.951147556      0.932458699      0.363542706       9.90286004E-04  0.310314566       1.90099701E-04
   1.00000000      0.124137931      0.951179266      0.932458222      0.364064395       9.01705469E-04  0.310764968       1.42892823E-04
   1.00000000      0.134482756      0.951200485      0.932456791      0.364387482       8.13405437E-04  0.311044246       1.10138208E-04
   1.00000000      0.144827589      0.951214612      0.932454824      0.364561141       7.27031380E-04  0.311194956       8.72313976E-05
   1.00000000      0.155172408      0.951223850      0.932452142      0.364625692       6.43656356E-04  0.311251909       7.07618892E-05
   1.00000000      0.165517241      0.951229513      0.932448983      0.364612699       5.64317626E-04  0.311242163       5.90048730E-05
   1.00000000      0.175862074      0.951232970      0.932445467      0.364546478       4.89568221E-04  0.311186671       5.01293689E-05
   1.00000000      0.186206892      0.951234758      0.932441771      0.364446253       4.19715507E-04  0.311101973       4.35430557E-05
   1.00000000      0.196551725      0.951235235      0.932437718      0.364325911       3.54990218E-04  0.310999960       3.85548919E-05
   1.00000000      0.206896558      0.951235116      0.932433844      0.364196271       2.95372825E-04  0.310889840       3.45148146E-05
   1.00000000      0.217241377      0.951234996      0.932430089      0.364065468       2.40728914E-04  0.310778767       3.06759030E-05
   1.00000000      0.227586210      0.951234519      0.932426274      0.363939106       1.90864812E-04  0.310671419       2.72914767E-05
   1.00000000      0.237931028      0.951233149      0.932422698      0.363821805       1.45351340E-04  0.310571641       2.55070627E-05
   1.00000000      0.248275861      0.951231956      0.932419419      0.363716483       1.03958599E-04  0.310482085       2.37636268E-05
   1.00000000      0.258620679      0.951230705      0.932416201      0.363625318       6.65774278E-05  0.310404599       2.20797956E-05
   1.00000000      0.268965513      0.951229095      0.932413042      0.363549888       3.34309989E-05  0.310340464       2.11354345E-05
   1.00000000      0.279310346      0.951227009      0.932409585      0.363490641       5.27223619E-06  0.310290098       2.04890966E-05
   1.00000000      0.289655179      0.951223671      0.932404935      0.363449782      -1.50696778E-05  0.310255468       2.03568488E-05
  0.989898980      0.300000012      0.951178730      0.932343066      0.363461852      -1.75774694E-05  0.310268730       2.01668590E-05
  0.979797959      0.300000012      0.951039493      0.932151735      0.363543034      -8.29506916E-06  0.310347170       1.98520720E-05
  0.969696999      0.300000012      0.950880826      0.931933463      0.363643676      -1.08735503E-06  0.310443521       1.92765146E-05
  0.959595978      0.300000012      0.950702250      0.931688130      0.363766819       4.82185760E-06  0.310560375       1.89226121E-05
  0.949494958      0.300000012      0.950503886      0.931415796      0.363913536       9.76805313E-06  0.310698628       1.87754631E-05
  0.939393938      0.300000012      0.950286567      0.931117177      0.364084095       1.38998248E-05  0.310858548       1.81905925E-05
  0.929292917      0.300000012      0.950051308      0.930794179      0.364278615       1.72094260E-05  0.311040074       1.78907067E-05
  0.919191897      0.300000012      0.949799478      0.930448353      0.364496350       1.97776717E-05  0.311242551       1.74753368E-05
  0.909090936      0.300000012      0.949532449      0.930081964      0.364736438       2.15680957E-05  0.311465144       1.72499567E-05
  0.898989916      0.300000012      0.949251831      0.929697156      0.364997894       2.24711730E-05  0.311706811       1.72406435E-05
  0.888888896      0.300000012      0.948960006      0.929296792      0.365279526       2.25310087E-05  0.311966568       1.69910491E-05
  0.878787875      0.300000012      0.948658764      0.928883493      0.365580052       2.16376939E-05  0.312243134       1.65663660E-05
  0.868686855      0.300000012      0.948350012      0.928460181      0.365898371       1.97362351E-05  0.312535346       1.65104866E-05
  0.858585835      0.300000012      0.948036134      0.928029597      0.366233110       1.67936578E-05  0.312842071       1.60615891E-05
  0.848484874      0.300000012      0.947718918      0.927594304      0.366583318       1.27067606E-05  0.313162267       1.54078007E-05
  0.838383853      0.300000012      0.947400093      0.927156985      0.366948396       7.42704651E-06  0.313495308       1.49216503E-05
  0.828282833      0.300000012      0.947081387      0.926720262      0.367327780       7.98988992E-07  0.313840538       1.48359686E-05
  0.818181813      0.300000012      0.946764529      0.926285982      0.367721140      -7.24083793E-06  0.314197719       1.45286322E-05
  0.808080792      0.300000012      0.946450889      0.925855935      0.368128657      -1.66750160E-05  0.314566851       1.40778720E-05
  0.797979772      0.300000012      0.946141183      0.925431848      0.368550807      -2.75655420E-05  0.314948171       1.40946358E-05
  0.787878811      0.300000012      0.945836961      0.925015271      0.368987948      -3.99931268E-05  0.315342009       1.40853226E-05
  0.777777791      0.300000012      0.945538819      0.924606860      0.369440973      -5.39243811E-05  0.315749139       1.38431787E-05
  0.767676771      0.300000012      0.945247412      0.924207807      0.369910598      -6.92697140E-05  0.316170007       1.37053430E-05
  0.757575750      0.300000012      0.944963276      0.923818707      0.370397776      -8.59392530E-05  0.316605508       1.34855509E-05
  0.747474730      0.300000012      0.944687188      0.923440516      0.370903105      -1.03795974E-04  0.317056030       1.31204724E-05
  0.737373710      0.300000012      0.944419086      0.923073351      0.371427238      -1.22669546E-04  0.317522138       1.28075480E-05
  0.727272749      0.300000012      0.944159448      0.922717810      0.371970177      -1.42330289E-04  0.318003833       1.24536455E-05
  0.717171729      0.300000012      0.943908632      0.922374547      0.372531742      -1.62487078E-04  0.318500847       1.23642385E-05
  0.707070708      0.300000012      0.943667114      0.922044396      0.373111069      -1.82952790E-04  0.319012463       1.26026571E-05
  0.696969688      0.300000012      0.943435490      0.921727479      0.373706937      -2.03322183E-04  0.319537669       1.25207007E-05
  0.686868668      0.300000012      0.943214893      0.921425164      0.374317080      -2.23122945E-04  0.320074439       1.18575990E-05
  0.676767647      0.300000012      0.943005562      0.921138525      0.374938965      -2.42055859E-04  0.320620507       1.15036964E-05
  0.666666687      0.300000012      0.942808211      0.920868516      0.375568986      -2.59598834E-04  0.321172774       1.13025308E-05
  0.656565666      0.300000012      0.942624509      0.920617044      0.376202255      -2.75237893E-04  0.321726888       1.10156834E-05
  0.646464646      0.300000012      0.942455709      0.920385897      0.376833290      -2.88526644E-04  0.322278142       1.06431544E-05
  0.636363626      0.300000012      0.942303479      0.920177400      0.377455473      -2.98996805E-04  0.322820783       1.02594495E-05
  0.626262605      0.300000012      0.942169428      0.919994116      0.378061205      -3.06021684E-04  0.323348045       1.02110207E-05
  0.616161644      0.300000012      0.942056179      0.919838846      0.378641665      -3.09036579E-04  0.323852360       9.70065594E-06
  0.606060624      0.300000012      0.941966057      0.919715226      0.379186869      -3.07307317E-04  0.324324936       9.27597284E-06
  0.595959604      0.300000012      0.941901624      0.919626951      0.379685670      -3.00325308E-04  0.324756056       9.03755426E-06
  0.585858583      0.300000012      0.941865444      0.919577539      0.380126059      -2.87946168E-04  0.325135231       9.07853246E-06
  0.575757563      0.300000012      0.941860378      0.919570565      0.380495876      -2.70136719E-04  0.325451910       9.03382897E-06
  0.565656543      0.300000012      0.941888511      0.919609010      0.380783439      -2.47056800E-04  0.325695902       8.98167491E-06
  0.555555582      0.300000012      0.941951931      0.919695675      0.380977780      -2.19403650E-04  0.325857699       8.97422433E-06
  0.545454562      0.300000012      0.942051888      0.919832468      0.381069630      -1.88012520E-04  0.325929314       9.13813710E-06
  0.535353541      0.300000012      0.942189395      0.920020342      0.381051302      -1.54116977E-04  0.325904131       9.06363130E-06
  0.525252521      0.300000012      0.942364395      0.920259416      0.380917817      -1.19231197E-04  0.325777888       8.87364149E-06
  0.515151501      0.300000012      0.942576408      0.920549214      0.380666852      -8.46128096E-05  0.325548589       8.79168510E-06
  0.505050480      0.300000012      0.942824900      0.920889199      0.380298465      -5.10910431E-05  0.325216353       8.98912549E-06
  0.494949490      0.300000012      0.943109035      0.921277821      0.379814655      -1.87514324E-05  0.324783057       9.11206007E-06
  0.484848499      0.300000012      0.943427265      0.921713114      0.379219353       1.23126410E-05  0.324252099       9.19029117E-06
  0.474747479      0.300000012      0.943777561      0.922192037      0.378518462       4.16894109E-05  0.323628813       8.85501504E-06
  0.464646459      0.300000012      0.944157898      0.922711968      0.377719313       6.97422074E-05  0.322919607       8.40798020E-06
  0.454545468      0.300000012      0.944565535      0.923269510      0.376829445       9.67166416E-05  0.322131097       8.23661685E-06
  0.444444448      0.300000012      0.944997787      0.923860669      0.375857294       1.21933415E-04  0.321270704       7.77840614E-06
  0.434343427      0.300000012      0.945451438      0.924481213      0.374813676       1.43991856E-04  0.320347965       7.27176666E-06
  0.424242437      0.300000012      0.945922554      0.925125837      0.373710901       1.61705335E-04  0.319373697       6.89178705E-06
  0.414141417      0.300000012      0.946406841      0.925788522      0.372562736       1.74511268E-04  0.318360001       6.35161996E-06
  0.404040396      0.300000012      0.946900308      0.926464140      0.371383488       1.82213451E-04  0.317319304       6.09271228E-06
  0.393939406      0.300000012      0.947399199      0.927147150      0.370186448       1.85179102E-04  0.316263229       5.60656190E-06
  0.383838385      0.300000012      0.947900057      0.927833140      0.368984193       1.83713986E-04  0.315202832       5.35510480E-06
  0.373737365      0.300000012      0.948399723      0.928517461      0.367787927       1.78361239E-04  0.314147919       4.78513539E-06
  0.363636374      0.300000012      0.948895514      0.929196894      0.366607457       1.69803316E-04  0.313106894       4.60259616E-06
  0.353535354      0.300000012      0.949384987      0.929867685      0.365451187       1.58775452E-04  0.312087238       4.28780913E-06
  0.343434334      0.300000012      0.949866474      0.930527627      0.364325702       1.45833095E-04  0.311094552       3.92459333E-06
  0.333333343      0.300000012      0.950338066      0.931174099      0.363236368       1.31638953E-04  0.310133696       3.44589353E-06
  0.323232323      0.300000012      0.950798571      0.931805432      0.362187117       1.16564108E-04  0.309207946       3.05287540E-06
  0.313131303      0.300000012      0.951246917      0.932420075      0.361181080       1.01047750E-04  0.308320075       2.45310366E-06
  0.303030312      0.300000012      0.951681793      0.933016598      0.360220611       8.54717364E-05  0.307472110       2.08616257E-06
  0.292929292      0.300000012      0.952102959      0.933594286      0.359306753       7.02177786E-05  0.306665003       1.65216625E-06
  0.282828271      0.300000012      0.952509582      0.934152067      0.358440101       5.54602339E-05  0.305899292       1.08964741E-06
  0.272727281      0.300000012      0.952900946      0.934689581      0.357621014       4.13448761E-05  0.305175185       1.22189522E-06
  0.262626261      0.300000012      0.953277171      0.935206175      0.356848627       2.81721386E-05  0.304492027       1.12131238E-06
  0.252525240      0.300000012      0.953638017      0.935701609      0.356122524       1.59054944E-05  0.303849488       8.84756446E-07
  0.242424250      0.300000012      0.953983009      0.936175287      0.355441540       4.76574132E-06  0.303246558       6.68689609E-07
  0.232323229      0.300000012      0.954311848      0.936627030      0.354804665      -5.25513315E-06  0.302682340       5.43892384E-07
  0.222222224      0.300000012      0.954624474      0.937056601      0.354210556      -1.42179842E-05  0.302155733       5.12227416E-07
  0.212121218      0.300000012      0.954920590      0.937463403      0.353658170      -2.20948696E-05  0.301665872       3.94880772E-07
  0.202020198      0.300000012      0.955199778      0.937847197      0.353146285      -2.89533236E-05  0.301211596       4.54485416E-07
  0.191919193      0.300000012      0.955461979      0.938207686      0.352673829      -3.47659734E-05  0.300792098       4.73111868E-07
  0.181818187      0.300000012      0.955706656      0.938544035      0.352239817      -3.95927491E-05  0.300406575       4.52622771E-07
  0.171717167      0.300000012      0.955933571      0.938856065      0.351843119      -4.34486501E-05  0.300053984       4.65661287E-07
  0.161616161      0.300000012      0.956142426      0.939143300      0.351482481      -4.63579127E-05  0.299733311       5.38304448E-07
  0.151515156      0.300000012      0.956332862      0.939404905      0.351156831      -4.82859359E-05  0.299443752       2.49594450E-07
  0.141414136      0.300000012      0.956504583      0.939640939      0.350864619      -4.92708605E-05  0.299183816       8.00937414E-08
  0.131313130      0.300000012      0.956657112      0.939850569      0.350604415      -4.92129293E-05  0.298952430      -4.47034836E-08
  0.121212125      0.300000012      0.956790268      0.940033734      0.350374460      -4.81802017E-05  0.298748076      -2.04890966E-08
  0.111111112      0.300000012      0.956903934      0.940190136      0.350173026      -4.63462384E-05  0.298569173       2.04890966E-08
  0.101010099      0.300000012      0.956998289      0.940319955      0.349998087      -4.36590744E-05  0.298414141       8.19563866E-08
   9.09090936E-02  0.300000012      0.957073152      0.940422833      0.349848121      -4.03074009E-05  0.298281640      -2.60770321E-08
   8.08080807E-02  0.300000012      0.957128823      0.940499604      0.349721700      -3.64817024E-05  0.298170358       1.86264515E-07
   7.07070678E-02  0.300000012      0.957165718      0.940550447      0.349617779      -3.25032233E-05  0.298079431       2.16066837E-07
   6.06060624E-02  0.300000012      0.957184315      0.940575898      0.349535525      -2.86386894E-05  0.298008174       9.31322575E-08
   5.05050495E-02  0.300000012      0.957185090      0.940577090      0.349474847      -2.50623325E-05  0.297956377       2.66358256E-07
   4.04040404E-02  0.300000012      0.957168877      0.940554559      0.349435776      -2.20351267E-05  0.297924101      -3.72529030E-09
   3.03030312E-02  0.300000012      0.957136452      0.940509915      0.349418759      -1.96545752E-05  0.297911614      -3.91155481E-08
   2.02020202E-02  0.300000012      0.957088649      0.940444112      0.349423587      -1.78564133E-05  0.297918707      -7.63684511E-08
   1.01010101E-02  0.300000012      0.957027197      0.940359712      0.349449217      -1.60044910E-05  0.297944367       6.89178705E-08
   0.00000000      0.289655179      0.956970215      0.940281212      0.349492908      -1.50527485E-05  0.297985196      -8.38190317E-08
   0.00000000      0.279310346      0.956963539      0.940271974      0.349517345      -1.80048937E-05  0.298006475      -1.45286322E-07
   0.00000000      0.268965513      0.956953764      0.940258563      0.349549592      -2.09024820E-05  0.298034519      -1.30385160E-07
   0.00000000      0.258620679      0.956941128      0.940241396      0.349588901      -2.35530551E-05  0.298068792       1.24797225E-07
   0.00000000      0.248275861      0.956926286      0.940220952      0.349634975      -2.59172339E-05  0.298109025       7.45058060E-08
   0.00000000      0.237931028      0.956909180      0.940197229      0.349687219      -2.83462541E-05  0.298154652      -1.09896064E-07
   0.00000000      0.227586210      0.956889927      0.940170586      0.349745184      -3.09411007E-05  0.298205316      -2.40281224E-07
   0.00000000      0.217241377      0.956868351      0.940141261      0.349808812      -3.36457706E-05  0.298260868       9.12696123E-08
   0.00000000      0.206896558      0.956844985      0.940109193      0.349877864      -3.66083150E-05  0.298321187       1.47148967E-07
   0.00000000      0.196551725      0.956820011      0.940074682      0.349951893      -3.99342825E-05  0.298385888       5.21540642E-08
   0.00000000      0.186206892      0.956793249      0.940037847      0.350031078      -4.38497082E-05  0.298455089       1.49011612E-08
   0.00000000      0.175862074      0.956764877      0.939999044      0.350115597      -4.83743825E-05  0.298528850       2.16066837E-07
   0.00000000      0.165517241      0.956734955      0.939957857      0.350205570      -5.38230961E-05  0.298607469       1.62050128E-07
   0.00000000      0.155172408      0.956703424      0.939914346      0.350301713      -6.02538603E-05  0.298691452       7.82310963E-08
   0.00000000      0.144827589      0.956670105      0.939868391      0.350404620      -6.80743397E-05  0.298781276      -7.07805157E-08
   0.00000000      0.134482756      0.956634820      0.939819932      0.350515306      -7.73611246E-05  0.298877865       0.00000000    
   0.00000000      0.124137931      0.956597567      0.939768732      0.350634843      -8.83441680E-05  0.298982114       4.65661287E-08
   0.00000000      0.113793105      0.956557751      0.939714015      0.350764811      -1.01185768E-04  0.299095392       6.33299351E-08
   0.00000000      0.103448279      0.956515312      0.939655602      0.350906938      -1.16190269E-04  0.299219310       3.91155481E-08
   0.00000000       9.31034461E-02  0.956469715      0.939592779      0.351063371      -1.33565947E-04  0.299355537      -5.96046448E-08
   0.00000000       8.27586204E-02  0.956420362      0.939525068      0.351236343      -1.53574496E-04  0.299506128       5.77419996E-08
   0.00000000       7.24137947E-02  0.956366777      0.939451337      0.351428539      -1.76374248E-04  0.299673378       1.67638063E-08
   0.00000000       6.20689653E-02  0.956308126      0.939370692      0.351642996      -2.01865580E-04  0.299859941       3.53902578E-08
   0.00000000       5.17241396E-02  0.956243992      0.939282358      0.351883262      -2.29603873E-04  0.300068885      -6.33299351E-08
   0.00000000       4.13793102E-02  0.956173003      0.939184904      0.352152973      -2.58376502E-04  0.300303340       6.33299351E-08
   0.00000000       3.10344826E-02  0.956094801      0.939077497      0.352456361      -2.84682261E-04  0.300566971       1.88127160E-07
   0.00000000       2.06896551E-02  0.956009388      0.938960016      0.352798074      -3.00615851E-04  0.300863743       1.89989805E-07
   0.00000000       1.03448275E-02  0.955917120      0.938832879      0.353183150      -2.87638017E-04  0.301198006      -1.06170774E-07
   1.01942774E-02  -1.06002917E-05  0.955755234      0.938610315      0.353403479      -4.79060021E-04  0.301396281      -9.12696123E-08
   2.03885511E-02  -4.05888240E-05  0.955390513      0.938109159      0.353584826      -1.05552329E-03  0.301575005       1.60187483E-07
   3.05827484E-02  -8.74972393E-05  0.955070257      0.937669337      0.353634715      -1.59160816E-03  0.301639438       5.94183803E-07
   4.07768898E-02  -1.49138228E-04  0.954780161      0.937270701      0.353596509      -2.06835475E-03  0.301627219       6.81728125E-07
   5.09709269E-02  -2.23550553E-04  0.954515159      0.936906636      0.353493541      -2.48629833E-03  0.301558435       7.71135092E-07
   6.11648858E-02  -3.08956922E-04  0.954273045      0.936574221      0.353339076      -2.84856139E-03  0.301444232       1.07660890E-06
   7.13587478E-02  -4.03728453E-04  0.954053223      0.936272204      0.353141457      -3.15834745E-03  0.301291794       1.09709799E-06
   8.15525427E-02  -5.06357115E-04  0.953855693      0.936000764      0.352905720      -3.41870054E-03  0.301105231       1.00769103E-06
   9.17462707E-02  -6.15430705E-04  0.953680754      0.935760617      0.352634758      -3.63192637E-03  0.300886899       1.25914812E-06
  0.101939946      -7.29613879E-04  0.953529060      0.935552418      0.352329999      -3.80003266E-03  0.300637901       1.38767064E-06
  0.112133577      -8.47629446E-04  0.953401089      0.935376883      0.351991594      -3.92447878E-03  0.300358385       1.68941915E-06
  0.122327171      -9.68243345E-04  0.953297555      0.935234785      0.351619154      -4.00631409E-03  0.300047934       1.81235373E-06
  0.132520750      -1.09024998E-03  0.953218699      0.935126722      0.351211905      -4.04613884E-03  0.299705744       2.01538205E-06
  0.142714337      -1.21245917E-03  0.953165352      0.935053468      0.350768358      -4.04424174E-03  0.299330622       2.05077231E-06
  0.152907923      -1.33368257E-03  0.953137457      0.935015321      0.350286931      -4.00052313E-03  0.298921168       2.20723450E-06
  0.163101539      -1.45272142E-03  0.953135312      0.935012639      0.349766076      -3.91450990E-03  0.298476011       2.50153244E-06
  0.173295200      -1.56835280E-03  0.953159392      0.935045838      0.349203825      -3.78518179E-03  0.297993481       2.67662108E-06
  0.183488905      -1.67931605E-03  0.953209579      0.935115159      0.348598212      -3.61127267E-03  0.297472000       3.05101275E-06
  0.193682685      -1.78429752E-03  0.953286231      0.935220659      0.347947001      -3.39090335E-03  0.296909660       3.34717333E-06
  0.203876525      -1.88191328E-03  0.953389406      0.935362458      0.347247332      -3.12147359E-03  0.296304107       3.43099236E-06
  0.214070454      -1.97069068E-03  0.953519404      0.935541213      0.346495867      -2.79993750E-03  0.295652479       3.63029540E-06
  0.224264458      -2.04904471E-03  0.953676403      0.935757101      0.345688641      -2.42250552E-03  0.294951558       3.86871397E-06
  0.234458551      -2.11525219E-03  0.953860819      0.936011076      0.344820648      -1.98431010E-03  0.294197172       4.51132655E-06
  0.244652733      -2.16741930E-03  0.954073608      0.936304033      0.343885750      -1.47944025E-03  0.293384165       5.18560410E-06
  0.254846990      -2.20344099E-03  0.954315960      0.936637342      0.342876017      -9.00645682E-04  0.292506129       5.57489693E-06
  0.265041292      -2.22095218E-03  0.954589069      0.937013090      0.341782004      -2.39017521E-04  0.291555107       5.99399209E-06
  0.275235593      -2.21726228E-03  0.954894722      0.937433541      0.340591699       5.16548287E-04  0.290521353       6.42426312E-06
  0.285429865      -2.18927371E-03  0.955235183      0.937901914      0.339290679       1.37965207E-03  0.289392948       6.86757267E-06
  0.295624018      -2.13337177E-03  0.955613196      0.938422322      0.337860674       2.36799917E-03  0.288154989       7.72066414E-06
  0.305817962      -2.04527588E-03  0.956032574      0.938999951      0.336279243       3.50363203E-03  0.286789447       8.75443220E-06
  0.316011488      -1.91983546E-03  0.956497908      0.939641237      0.334518284       4.81569674E-03  0.285273731       1.02315098E-05
  0.326204360      -1.75073801E-03  0.957015514      0.940354466      0.332542658       6.34282036E-03  0.283580244       1.15577132E-05
  0.336396307      -1.53008103E-03  0.957592666      0.941150248      0.330307245       8.13754927E-03  0.281673998       1.34520233E-05
  0.346586645      -1.24772848E-03  0.958238780      0.942041814      0.327753901       1.02742035E-02  0.279511005       1.59572810E-05
  0.356774658      -8.90274358E-04  0.958966076      0.943046391      0.324806690       1.28611773E-02  0.277036041       1.95764005E-05
  0.366958946      -4.39326104E-04  0.959791362      0.944187224      0.321364731       1.60849430E-02  0.274180710       2.43149698E-05
  0.377137065       1.33766516E-04  0.960752666      0.945519090      0.317340791       2.07837448E-02  0.270933062       3.24230641E-05
  0.387299746       9.32033930E-04  0.961721361      0.946865618      0.313390881       2.78812759E-02  0.267987639       4.46401536E-05
  0.397434235       2.03104783E-03  0.962433398      0.947863340      0.310255080       3.69608477E-02  0.266089320       6.16665930E-05
  0.407523632       3.48527054E-03  0.962783992      0.948371172      0.308237940       4.79070693E-02  0.265632033       8.73506069E-05
  0.417543113       5.36030158E-03  0.962655544      0.948234797      0.307774305       6.11929595E-02  0.267217308       1.30305067E-04
  0.427456856       7.73026003E-03  0.961776674      0.947096288      0.309826791       7.74786547E-02  0.271998614       2.07724050E-04
  0.437217921       1.06651187E-02  0.959635556      0.944282830      0.316220284       9.73642692E-02  0.281900436       3.52842733E-04
  0.446780443       1.41935814E-02  0.955309570      0.938579619      0.330180258      0.120542504      0.299704313       6.20141625E-04
  0.456144422       1.82216074E-02  0.947396994      0.928120553      0.356452912      0.143437907      0.328088999       1.05820596E-03
  0.465438336       2.24102195E-02  0.934738934      0.911344171      0.398348570      0.155796066      0.366109401       1.64856762E-03
  0.474928796       2.61229333E-02  0.918968678      0.890446901      0.449096203      0.142991111      0.404659450       2.27271020E-03
  0.484786808       2.86871437E-02  0.905621231      0.872889102      0.490026385      0.100998446      0.430708289       2.84099579E-03
  0.494905144       2.98680626E-02  0.899185181      0.864741921      0.507669568       4.57223579E-02  0.439291388       3.44859064E-03
  0.505094886       2.98680626E-02  0.898551464      0.864516675      0.504848361      -8.19248706E-03  0.435049713       4.17514890E-03
  0.515213192       2.86871418E-02  0.900431693      0.868026316      0.486253291      -6.24700896E-02  0.421999872       5.30014187E-03
  0.525071204       2.61229314E-02  0.904816866      0.875331044      0.451382816     -0.113574609      0.399949491       6.87870383E-03
  0.534561634       2.24102195E-02  0.913311481      0.888183951      0.406104863     -0.144407406      0.369391769       8.37320834E-03
  0.543855608       1.82216056E-02  0.924970686      0.904988408      0.362172425     -0.145796120      0.333585441       9.35735367E-03
  0.553219557       1.41935805E-02  0.936106920      0.920774281      0.327787101     -0.126882583      0.299524426       9.89542343E-03
  0.562782109       1.06651178E-02  0.944076777      0.932020307      0.304909497     -0.102583252      0.273642004       1.01662111E-02
  0.572543144       7.73025956E-03  0.948898077      0.938812494      0.291458428      -8.09042007E-02  0.257010847       1.02958931E-02
  0.582456887       5.36030112E-03  0.951601565      0.942618132      0.284374237      -6.34662583E-02  0.247423545       1.03584081E-02
  0.592476368       3.48527008E-03  0.953055620      0.944647908      0.281306088      -4.96511273E-02  0.242493898       1.03718173E-02