 title = "grid"
                                   variables = "x","y","rho","P","u","v","M","S"
 zone n=        3000  e =        5742  et=quadrilateral, f=fepoint
   0.00000000       0.00000000      0.955048323      0.937638521      0.357017666      -2.87368282E-04  0.304523498      -1.13621354E-07
   1.00000000       0.00000000      0.944469273      0.932164609      0.319412589       5.81678469E-04  0.271729201       9.73908603E-03
   1.00000000      0.300000012      0.951393783      0.932636678      0.364436775       4.62338576E-05  0.311087161       1.85910612E-05
   0.00000000      0.300000012      0.956475735      0.939601243      0.350987613       1.98250509E-05  0.299290538       7.45058060E-08
   1.00000000       1.03448275E-02  0.945963800      0.932235062      0.326050997       9.20304155E-04  0.277586162       7.60109350E-03
   1.00000000       2.06896551E-02  0.947668374      0.932277620      0.334221542       1.23436330E-03  0.284792781       5.12628071E-03
   1.00000000       3.10344826E-02  0.948807657      0.932310224      0.340493441       1.43585249E-03  0.290306985       3.47915106E-03
   1.00000000       4.13793102E-02  0.949582875      0.932336092      0.345602781       1.56020338E-03  0.294779867       2.36353464E-03
   1.00000000       5.17241396E-02  0.950112760      0.932358205      0.349797696       1.62986817E-03  0.298437804       1.60627253E-03
   1.00000000       6.20689653E-02  0.950475514      0.932377875      0.353218019       1.66007015E-03  0.301410347       1.09288469E-03
   1.00000000       7.24137947E-02  0.950723648      0.932396054      0.355972290       1.66098226E-03  0.303797275       7.46993348E-04
   1.00000000       8.27586204E-02  0.950893700      0.932413399      0.358155012       1.63993484E-03  0.305684388       5.15162945E-04
   1.00000000       9.31034461E-02  0.951011240      0.932430208      0.359856367       1.60226633E-03  0.307152539       3.60209495E-04
   1.00000000      0.103448279      0.951093674      0.932447016      0.361159652       1.55216490E-03  0.308275342       2.56823376E-04
   1.00000000      0.113793105      0.951153100      0.932463706      0.362140417       1.49245991E-03  0.309119135       1.87268481E-04
   1.00000000      0.124137931      0.951197386      0.932480276      0.362867117       1.42558897E-03  0.309743673       1.39901415E-04
   1.00000000      0.134482756      0.951231778      0.932496846      0.363397241       1.35321007E-03  0.310198784       1.06999651E-04
   1.00000000      0.144827589      0.951259375      0.932513356      0.363777518       1.27661717E-03  0.310524911       8.40872526E-05
   1.00000000      0.155172408      0.951282740      0.932529688      0.364045590       1.19665358E-03  0.310754627       6.72060996E-05
   1.00000000      0.165517241      0.951302290      0.932545781      0.364230901       1.11405202E-03  0.310913086       5.57061285E-05
   1.00000000      0.175862074      0.951319873      0.932561517      0.364355445       1.02956849E-03  0.311019421       4.67412174E-05
   1.00000000      0.186206892      0.951335251      0.932576597      0.364436358       9.43525345E-04  0.311088294       4.02741134E-05
   1.00000000      0.196551725      0.951348960      0.932591021      0.364485621       8.56314728E-04  0.311129987       3.55336815E-05
   1.00000000      0.206896558      0.951361656      0.932604551      0.364512295       7.68288854E-04  0.311152428       3.13520432E-05
   1.00000000      0.217241377      0.951372802      0.932616949      0.364522934       6.79770019E-04  0.311161101       2.82432884E-05
   1.00000000      0.227586210      0.951382816      0.932628214      0.364522040       5.91087737E-04  0.311159968       2.56281346E-05
   1.00000000      0.237931028      0.951391399      0.932637930      0.364513159       5.02605340E-04  0.311152101       2.34190375E-05
   1.00000000      0.248275861      0.951398671      0.932646215      0.364498675       4.14713111E-04  0.311139405       2.15694308E-05
   1.00000000      0.258620679      0.951404154      0.932653010      0.364480287       3.28114373E-04  0.311123401       2.07833946E-05
   1.00000000      0.268965513      0.951408207      0.932657540      0.364459783       2.43525559E-04  0.311105758       1.96900219E-05
   1.00000000      0.279310346      0.951410592      0.932660401      0.364438713       1.61856980E-04  0.311087638       1.92280859E-05
   1.00000000      0.289655179      0.951411426      0.932660997      0.364420921       8.48619238E-05  0.311072439       1.86301768E-05
  0.989898980      0.300000012      0.951474488      0.932747424      0.364369005       6.10652787E-05  0.311024040       1.85091048E-05
  0.979797959      0.300000012      0.951661050      0.933003187      0.364230931       6.42152663E-05  0.310894042       1.82203948E-05
  0.969696999      0.300000012      0.951839685      0.933247983      0.364096433       6.64636391E-05  0.310767651       1.78050250E-05
  0.959595978      0.300000012      0.952007771      0.933478594      0.363969386       6.80734956E-05  0.310648263       1.76969916E-05
  0.949494958      0.300000012      0.952162921      0.933691263      0.363853306       6.93148904E-05  0.310539097       1.72927976E-05
  0.939393938      0.300000012      0.952302754      0.933883131      0.363751620       7.02581383E-05  0.310443223       1.72201544E-05
  0.929292917      0.300000012      0.952425182      0.934051096      0.363666832       7.09583692E-05  0.310362905       1.70990825E-05
  0.919191897      0.300000012      0.952528179      0.934192121      0.363601595       7.14362614E-05  0.310300559       1.67004764E-05
  0.909090936      0.300000012      0.952609599      0.934303701      0.363558412       7.17103758E-05  0.310258448       1.64024532E-05
  0.898989916      0.300000012      0.952667773      0.934383154      0.363539547       7.16842915E-05  0.310238659       1.59926713E-05
  0.888888896      0.300000012      0.952701032      0.934428334      0.363547027       7.13796180E-05  0.310242951       1.54525042E-05
  0.878787875      0.300000012      0.952707946      0.934437573      0.363582700       7.07425570E-05  0.310272962       1.51563436E-05
  0.868686855      0.300000012      0.952687502      0.934409082      0.363648564       6.97247597E-05  0.310330570       1.47633255E-05
  0.858585835      0.300000012      0.952638447      0.934341550      0.363746107       6.82691898E-05  0.310417056       1.45751983E-05
  0.848484874      0.300000012      0.952560365      0.934234381      0.363876820       6.62515376E-05  0.310533673       1.45994127E-05
  0.838383853      0.300000012      0.952452660      0.934086561      0.364041924       6.36704281E-05  0.310681611       1.46739185E-05
  0.828282833      0.300000012      0.952315509      0.933898211      0.364242703       6.04699489E-05  0.310861886       1.45919621E-05
  0.818181813      0.300000012      0.952149093      0.933669329      0.364479959       5.65817281E-05  0.311075330       1.41803175E-05
  0.808080792      0.300000012      0.951953351      0.933400214      0.364754587       5.19871901E-05  0.311322570       1.37537718E-05
  0.797979772      0.300000012      0.951728821      0.933092177      0.365066946       4.66103083E-05  0.311603874       1.38599426E-05
  0.787878811      0.300000012      0.951476753      0.932745755      0.365417510       4.05173269E-05  0.311919689       1.34389848E-05
  0.777777791      0.300000012      0.951197624      0.932362616      0.365806460       3.36752855E-05  0.312270015       1.33141875E-05
  0.767676771      0.300000012      0.950892925      0.931944191      0.366233647       2.60605630E-05  0.312654763       1.29658729E-05
  0.757575750      0.300000012      0.950563610      0.931492269      0.366698891       1.77067377E-05  0.313073695       1.28466636E-05
  0.747474730      0.300000012      0.950211287      0.931008756      0.367201775       8.63230161E-06  0.313526273       1.26492232E-05
  0.737373710      0.300000012      0.949837208      0.930495501      0.367741644      -1.01168348E-06  0.314012021       1.25393271E-05
  0.727272749      0.300000012      0.949442923      0.929954767      0.368317544      -1.11974396E-05  0.314529896       1.24927610E-05
  0.717171729      0.300000012      0.949030459      0.929388821      0.368928432      -2.18511323E-05  0.315079004       1.20606273E-05
  0.707070708      0.300000012      0.948601425      0.928800404      0.369572878      -3.27729431E-05  0.315657973       1.17830932E-05
  0.696969688      0.300000012      0.948157609      0.928191721      0.370249122      -4.37948584E-05  0.316265225       1.13993883E-05
  0.686868668      0.300000012      0.947700977      0.927565873      0.370954812      -5.47213531E-05  0.316898584       1.12988055E-05
  0.676767647      0.300000012      0.947234154      0.926925957      0.371686965      -6.51839000E-05  0.317555368       1.09169632E-05
  0.666666687      0.300000012      0.946759522      0.926275492      0.372441709      -7.48121020E-05  0.318232119       1.06152147E-05
  0.656565666      0.300000012      0.946279705      0.925618112      0.373214364      -8.32535734E-05  0.318924725       1.03786588E-05
  0.646464646      0.300000012      0.945798099      0.924958289      0.373999029      -8.99750157E-05  0.319627881       9.97073948E-06
  0.636363626      0.300000012      0.945317924      0.924300790      0.374788433      -9.43556079E-05  0.320335060       9.81613994E-06
  0.626262605      0.300000012      0.944843113      0.923650682      0.375573635      -9.57636585E-05  0.321038485       9.59262252E-06
  0.616161644      0.300000012      0.944378078      0.923013985      0.376344174      -9.36229699E-05  0.321728855       9.24989581E-06
  0.606060624      0.300000012      0.943927228      0.922397077      0.377088457      -8.72155142E-05  0.322395951       9.16793942E-06
  0.595959604      0.300000012      0.943495274      0.921806276      0.377792835      -7.61633855E-05  0.323027670       9.33185220E-06
  0.585858583      0.300000012      0.943087280      0.921248257      0.378442973      -6.02244181E-05  0.323611557       9.30577517E-06
  0.575757563      0.300000012      0.942708075      0.920729578      0.379024416      -3.93621958E-05  0.324134827       9.11951065E-06
  0.565656543      0.300000012      0.942361832      0.920256197      0.379523247      -1.41523078E-05  0.324585289       9.16421413E-06
  0.555555582      0.300000012      0.942052782      0.919833601      0.379926473       1.46279290E-05  0.324951470       9.07480717E-06
  0.545454562      0.300000012      0.941783607      0.919465601      0.380223900       4.57813367E-05  0.325224459       8.97049904E-06
  0.535353541      0.300000012      0.941556275      0.919154882      0.380408019       7.79833790E-05  0.325397700       9.02637839E-06
  0.525252521      0.300000012      0.941372156      0.918903410      0.380475193       1.09995141E-04  0.325467825       9.14558768E-06
  0.515151501      0.300000012      0.941232264      0.918711960      0.380424559       1.41359938E-04  0.325434268       8.88109207E-06
  0.505050480      0.300000012      0.941137254      0.918582022      0.380256712       1.72229265E-04  0.325297266       8.69482756E-06
  0.494949490      0.300000012      0.941087306      0.918513596      0.379973650       2.02799667E-04  0.325058639       8.56816769E-06
  0.484848499      0.300000012      0.941081822      0.918505788      0.379579246       2.32498656E-04  0.324721664       8.20308924E-06
  0.474747479      0.300000012      0.941119015      0.918556333      0.379079819       2.61098525E-04  0.324291915       7.90879130E-06
  0.464646459      0.300000012      0.941197693      0.918663621      0.378482074       2.89294810E-04  0.323775202       7.61449337E-06
  0.454545468      0.300000012      0.941316187      0.918825269      0.377791852       3.17207188E-04  0.323176712       7.34254718E-06
  0.444444448      0.300000012      0.941471815      0.919037759      0.377016425       3.43373278E-04  0.322502762       7.17490911E-06
  0.434343427      0.300000012      0.941660881      0.919296026      0.376165688       3.65760818E-04  0.321762174       7.01472163E-06
  0.424242437      0.300000012      0.941879690      0.919594705      0.375252426       3.82733968E-04  0.320966125       6.56768680E-06
  0.414141417      0.300000012      0.942123950      0.919928193      0.374290705       3.93867143E-04  0.320127010       6.14300370E-06
  0.404040396      0.300000012      0.942389965      0.920291722      0.373294592       3.99032491E-04  0.319257051       6.02751970E-06
  0.393939406      0.300000012      0.942674220      0.920680165      0.372277647       3.98584787E-04  0.318368167       5.72577119E-06
  0.383838385      0.300000012      0.942974091      0.921089590      0.371251702       3.93243477E-04  0.317470670       5.07384539E-06
  0.373737365      0.300000012      0.943286479      0.921516538      0.370227456       3.83523409E-04  0.316573888       4.82052565E-06
  0.363636374      0.300000012      0.943609536      0.921958029      0.369213969       3.70162830E-04  0.315685689       4.38466668E-06
  0.353535354      0.300000012      0.943941534      0.922411501      0.368218750       3.54018062E-04  0.314812720       3.59863043E-06
  0.343434334      0.300000012      0.944280803      0.922875047      0.367247671       3.35814460E-04  0.313960016       2.95415521E-06
  0.333333343      0.300000012      0.944626153      0.923347592      0.366304994       3.16137623E-04  0.313131243       2.92062759E-06
  0.323232323      0.300000012      0.944977283      0.923827469      0.365394086       2.95534061E-04  0.312329412       2.18302011E-06
  0.313131303      0.300000012      0.945333064      0.924313962      0.364517391       2.74339458E-04  0.311556637       1.64285302E-06
  0.303030312      0.300000012      0.945692718      0.924806356      0.363676310       2.52972182E-04  0.310814112       1.70245767E-06
  0.292929292      0.300000012      0.946055889      0.925303757      0.362871706       2.31792699E-04  0.310102582       1.89803541E-06
  0.282828271      0.300000012      0.946422756      0.925805867      0.362103641       2.10987346E-04  0.309422284       1.58697367E-06
  0.272727281      0.300000012      0.946792603      0.926312208      0.361372143       1.90699808E-04  0.308773071       1.32992864E-06
  0.262626261      0.300000012      0.947165012      0.926822245      0.360676289       1.71177846E-04  0.308154315       1.26659870E-06
  0.252525240      0.300000012      0.947539806      0.927335501      0.360015631       1.52490305E-04  0.307565540       1.00769103E-06
  0.242424250      0.300000012      0.947916687      0.927851975      0.359388888       1.34840389E-04  0.307005674       1.07102096E-06
  0.232323229      0.300000012      0.948295414      0.928370893      0.358794957       1.18207608E-04  0.306473851       9.38773155E-07
  0.222222224      0.300000012      0.948675871      0.928892195      0.358232379       1.02641541E-04  0.305968791       7.17118382E-07
  0.212121218      0.300000012      0.949057579      0.929415464      0.357699782       8.82491076E-05  0.305489331       6.78002834E-07
  0.202020198      0.300000012      0.949440420      0.929940283      0.357195556       7.51129264E-05  0.305034071       5.73694706E-07
  0.191919193      0.300000012      0.949824095      0.930466294      0.356717885       6.32387528E-05  0.304601580       4.76837158E-07
  0.181818187      0.300000012      0.950208187      0.930993021      0.356265068       5.27607845E-05  0.304190308       3.29688191E-07
  0.171717167      0.300000012      0.950592697      0.931520402      0.355834961       4.36113805E-05  0.303798527       2.53319740E-07
  0.161616161      0.300000012      0.950976789      0.932047486      0.355425745       3.58547186E-05  0.303424597       3.94880772E-07
  0.151515156      0.300000012      0.951360285      0.932573915      0.355035126       2.95969003E-05  0.303066671       5.66244125E-07
  0.141414136      0.300000012      0.951742947      0.933099091      0.354661375       2.46112140E-05  0.302723289       5.14090061E-07
  0.131313130      0.300000012      0.952124119      0.933622301      0.354302704       2.09457994E-05  0.302392930       5.43892384E-07
  0.121212125      0.300000012      0.952503383      0.934142828      0.353957832       1.84557684E-05  0.302074552       3.68803740E-07
  0.111111112      0.300000012      0.952879906      0.934659719      0.353626102       1.68460047E-05  0.301767647       2.19792128E-07
  0.101010099      0.300000012      0.953252733      0.935171843      0.353306711       1.60200980E-05  0.301471442       3.25962901E-07
   9.09090936E-02  0.300000012      0.953621209      0.935678065      0.352999926       1.57786817E-05  0.301186383       4.04193997E-07
   8.08080807E-02  0.300000012      0.953984439      0.936176896      0.352706283       1.60057280E-05  0.300912946       2.34693289E-07
   7.07070678E-02  0.300000012      0.954341173      0.936666787      0.352426678       1.64443572E-05  0.300651938      -2.79396772E-08
   6.06060624E-02  0.300000012      0.954690039      0.937146306      0.352162331       1.71760930E-05  0.300404459       1.34110451E-07
   5.05050495E-02  0.300000012      0.955030203      0.937613785      0.351914257       1.81126961E-05  0.300171465       6.89178705E-08
   4.04040404E-02  0.300000012      0.955360115      0.938067496      0.351683497       1.93573469E-05  0.299953848       3.31550837E-07
   3.03030312E-02  0.300000012      0.955678701      0.938505292      0.351470649       2.11161059E-05  0.299752384       1.41561031E-07
   2.02020202E-02  0.300000012      0.955984652      0.938925982      0.351275861       2.34081963E-05  0.299567074       1.62050128E-07
   1.01010101E-02  0.300000012      0.956275761      0.939326108      0.351100534       2.52650607E-05  0.299399346      -9.31322575E-09
   0.00000000      0.289655179      0.956492603      0.939624429      0.350971699      -5.49741844E-06  0.299275905       5.77419996E-08
   0.00000000      0.279310346      0.956492484      0.939624131      0.350974858      -2.84154357E-05  0.299278617      -6.70552254E-08
   0.00000000      0.268965513      0.956486404      0.939615667      0.351003736      -4.79418159E-05  0.299303651      -2.04890966E-07
   0.00000000      0.258620679      0.956475079      0.939600229      0.351054609      -6.57757409E-05  0.299347728      -3.72529030E-09
   0.00000000      0.248275861      0.956459224      0.939578474      0.351125628      -8.23214432E-05  0.299409240       0.00000000    
   0.00000000      0.237931028      0.956439018      0.939550638      0.351215482      -9.81216144E-05  0.299487144      -4.09781933E-08
   0.00000000      0.227586210      0.956414878      0.939517438      0.351323187      -1.13176866E-04  0.299580514      -5.58793545E-09
   0.00000000      0.217241377      0.956386566      0.939478695      0.351448327      -1.27525345E-04  0.299688995       1.76951289E-07
   0.00000000      0.206896558      0.956354558      0.939434648      0.351589620      -1.41106924E-04  0.299811482       1.58324838E-07
   0.00000000      0.196551725      0.956318855      0.939385355      0.351746589      -1.53911780E-04  0.299947590      -9.31322575E-08
   0.00000000      0.186206892      0.956279576      0.939331472      0.351918489      -1.66098820E-04  0.300096601       8.75443220E-08
   0.00000000      0.175862074      0.956237018      0.939272821      0.352104336      -1.77610666E-04  0.300257772      -8.38190317E-08
   0.00000000      0.165517241      0.956191063      0.939209521      0.352303684      -1.88591614E-04  0.300430745      -1.41561031E-07
   0.00000000      0.155172408      0.956141770      0.939141989      0.352516025      -1.99029164E-04  0.300614864       7.45058060E-08
   0.00000000      0.144827589      0.956089497      0.939069986      0.352740347      -2.09107035E-04  0.300809473      -7.45058060E-09
   0.00000000      0.134482756      0.956034184      0.938994050      0.352976471      -2.19008914E-04  0.301014274       1.35973096E-07
   0.00000000      0.124137931      0.955975831      0.938913882      0.353223979      -2.28816891E-04  0.301229030       2.19792128E-07
   0.00000000      0.113793105      0.955914557      0.938829541      0.353482634      -2.38748253E-04  0.301453531       1.28522515E-07
   0.00000000      0.103448279      0.955850184      0.938741028      0.353752732      -2.49158504E-04  0.301687926       1.17346644E-07
   0.00000000       9.31034461E-02  0.955782592      0.938647866      0.354034364      -2.60371657E-04  0.301932395      -1.21071935E-07
   0.00000000       8.27586204E-02  0.955711365      0.938550055      0.354328573      -2.72603094E-04  0.302187800       1.30385160E-08
   0.00000000       7.24137947E-02  0.955636501      0.938447237      0.354636252      -2.86194147E-04  0.302454948       7.07805157E-08
   0.00000000       6.20689653E-02  0.955557346      0.938338578      0.354958892      -3.01133055E-04  0.302735120       2.47731805E-07
   0.00000000       5.17241396E-02  0.955473900      0.938223660      0.355298549      -3.17508384E-04  0.303030133       3.35276127E-08
   0.00000000       4.13793102E-02  0.955385208      0.938101590      0.355658084      -3.34429176E-04  0.303342462      -9.68575478E-08
   0.00000000       3.10344826E-02  0.955290616      0.937971711      0.356040835      -3.48970178E-04  0.303674877       4.65661287E-08
   0.00000000       2.06896551E-02  0.955190003      0.937833369      0.356450945      -3.54281918E-04  0.304031104      -2.23517418E-08
   0.00000000       1.03448275E-02  0.955083609      0.937687159      0.356894016      -3.33872187E-04  0.304415762       4.47034836E-08
   1.01942774E-02  -1.06002917E-05  0.955006301      0.937580884      0.357073426      -5.30111429E-04  0.304573923      -5.58793545E-09
   2.03885511E-02  -4.05888240E-05  0.954915106      0.937455773      0.357069761      -1.12483941E-03  0.304577798       2.51457095E-07
   3.05827484E-02  -8.74972393E-05  0.954881668      0.937409937      0.356920242      -1.67365500E-03  0.304454178       4.26545739E-07
   4.07768898E-02  -1.49138228E-04  0.954888403      0.937419176      0.356668949      -2.15930096E-03  0.304241598       3.94880772E-07
   5.09709269E-02  -2.23550553E-04  0.954926968      0.937472284      0.356340945      -2.58288835E-03  0.303961813       5.14090061E-07
   6.11648858E-02  -3.08956922E-04  0.954991996      0.937561750      0.355952412      -2.94788950E-03  0.303628623       5.90458512E-07
   7.13587478E-02  -4.03728453E-04  0.955079734      0.937682569      0.355514169      -3.25775868E-03  0.303251565       8.13975930E-07
   8.15525427E-02  -5.06357115E-04  0.955186903      0.937830031      0.355034649      -3.51589895E-03  0.302837849       9.77888703E-07
   9.17462707E-02  -6.15430705E-04  0.955311120      0.938000917      0.354519993      -3.72501230E-03  0.302392781       1.10454857E-06
  0.101939946      -7.29613879E-04  0.955450237      0.938192189      0.353974730      -3.88725661E-03  0.301920474       1.21816993E-06
  0.112133577      -8.47629446E-04  0.955602169      0.938401282      0.353402436      -4.00423957E-03  0.301423877       1.39139593E-06
  0.122327171      -9.68243345E-04  0.955765426      0.938625753      0.352805406      -4.07741638E-03  0.300905168       1.40070915E-06
  0.132520750      -1.09024998E-03  0.955938339      0.938863575      0.352185071      -4.10739752E-03  0.300365537       1.51433051E-06
  0.142714337      -1.21245917E-03  0.956119716      0.939113200      0.351541996      -4.09463095E-03  0.299805641       1.71549618E-06
  0.152907923      -1.33368257E-03  0.956308424      0.939372838      0.350875616      -4.03907429E-03  0.299225032       1.92411244E-06
  0.163101539      -1.45272142E-03  0.956503928      0.939641893      0.350185066      -3.94035224E-03  0.298623025       2.05263495E-06
  0.173295200      -1.56835280E-03  0.956705570      0.939919412      0.349468470      -3.79756023E-03  0.297998071       2.25566328E-06
  0.183488905      -1.67931605E-03  0.956913054      0.940204859      0.348723203      -3.60937626E-03  0.297348052       2.33575702E-06
  0.193682685      -1.78429752E-03  0.957126141      0.940498173      0.347946197      -3.37407528E-03  0.296670318       2.57790089E-06
  0.203876525      -1.88191328E-03  0.957344830      0.940799356      0.347133607      -3.08926031E-03  0.295961708       2.90013850E-06
  0.214070454      -1.97069068E-03  0.957569599      0.941109002      0.346281022      -2.75205215E-03  0.295218527       3.30433249E-06
  0.224264458      -2.04904471E-03  0.957801163      0.941427946      0.345383197      -2.35867361E-03  0.294436395       3.60980630E-06
  0.234458551      -2.11525219E-03  0.958040237      0.941757262      0.344434470      -1.90456945E-03  0.293610543       3.95439565E-06
  0.244652733      -2.16741930E-03  0.958288193      0.942098856      0.343427539      -1.38406269E-03  0.292734861       4.30084765E-06
  0.254846990      -2.20344099E-03  0.958546400      0.942454636      0.342354119      -7.90050311E-04  0.291802526       4.77582216E-06
  0.265041292      -2.22095218E-03  0.958816528      0.942826986      0.341204554      -1.13684167E-04  0.290805489       5.30295074E-06
  0.275235593      -2.21726228E-03  0.959100723      0.943218946      0.339966893       6.55848067E-04  0.289733857       6.04242086E-06
  0.285429865      -2.18927371E-03  0.959401786      0.943634152      0.338626832       1.53201516E-03  0.288576007       6.73532486E-06
  0.295624018      -2.13337177E-03  0.959723055      0.944077313      0.337166697       2.53234920E-03  0.287317514       7.51577318E-06
  0.305817962      -2.04527588E-03  0.960068703      0.944554389      0.335564584       3.67884035E-03  0.285940617       8.58493149E-06
  0.316011488      -1.91983546E-03  0.960443676      0.945071995      0.333793074       5.00063971E-03  0.284423560       9.78633761E-06
  0.326204360      -1.75073801E-03  0.960854471      0.945639193      0.331817538       6.53613871E-03  0.282738954       1.10380352E-05
  0.336396307      -1.53008103E-03  0.961308956      0.946267247      0.329593718       8.33797362E-03  0.280852556       1.29491091E-05
  0.346586645      -1.24772848E-03  0.961817086      0.946970105      0.327063888       1.04803136E-02  0.278720915       1.55903399E-05
  0.356774658      -8.90274358E-04  0.962391913      0.947765887      0.324152291       1.30715230E-02  0.276288837       1.91647559E-05
  0.366958946      -4.39326104E-04  0.963051260      0.948679388      0.320758581       1.62979867E-02  0.273488581       2.37058848E-05
  0.377137065       1.33766516E-04  0.963834226      0.949767172      0.316795141       2.09971368E-02  0.270308018       3.19089741E-05
  0.387299746       9.32033930E-04  0.964614213      0.950854719      0.312915117       2.80924533E-02  0.267439425       4.38839197E-05
  0.397434235       2.03104783E-03  0.965128183      0.951580107      0.309854895       3.71699221E-02  0.265623659       6.06663525E-05
  0.407523632       3.48527054E-03  0.965272009      0.951803029      0.307916313       4.81163859E-02  0.265252024       8.62982124E-05
  0.417543113       5.36030158E-03  0.964929760      0.951370835      0.307529777       6.14063032E-02  0.266922832       1.28585845E-04
  0.427456856       7.73026003E-03  0.963827908      0.949922979      0.309651822       7.77008832E-02  0.271784574       2.05164775E-04
  0.437217921       1.06651187E-02  0.961453438      0.946784914      0.316102713       9.76005271E-02  0.281757832       3.49419191E-04
  0.446780443       1.41935814E-02  0.956886530      0.940744221      0.330094337      0.120796166      0.299611717       6.14671037E-04
  0.456144422       1.82216074E-02  0.948727071      0.929936469      0.356352448      0.143707260      0.328004897       1.04871951E-03
  0.465438336       2.24102195E-02  0.935824931      0.912813127      0.398154765      0.156072497      0.365958959       1.63353235E-03
  0.474928796       2.61229333E-02  0.919830978      0.891598284      0.448697984      0.143271089      0.404335082       2.25187466E-03
  0.484786808       2.86871437E-02  0.906283557      0.873765051      0.489320755      0.101309799      0.430109143       2.82049552E-03
  0.494905144       2.98680626E-02  0.899638474      0.865339816      0.506623209       4.61181104E-02  0.438383013       3.43423337E-03
  0.505094886       2.98680626E-02  0.898749828      0.864778876      0.503549814      -7.67730828E-03  0.433906138       4.16937098E-03
  0.515213192       2.86871418E-02  0.900324762      0.867885470      0.484831482      -6.17911518E-02  0.420720816       5.30411303E-03
  0.525071204       2.61229314E-02  0.904350281      0.874709725      0.449993312     -0.112730131      0.398653477       6.89073652E-03
  0.534561634       2.24102195E-02  0.912438929      0.887007296      0.404881656     -0.143479198      0.368205816       8.38570297E-03
  0.543855608       1.82216056E-02  0.923677206      0.903218091      0.361166507     -0.144903228      0.332596332       9.35844332E-03
  0.553219557       1.41935805E-02  0.934414327      0.918428719      0.326977044     -0.126095578      0.298749417       9.87850502E-03
  0.562782109       1.06651178E-02  0.942022622      0.929151833      0.304244131     -0.101904705      0.273045152       1.01332609E-02
  0.572543144       7.73025956E-03  0.946510732      0.935471952      0.290894359      -8.03108886E-02  0.256548554       1.02580432E-02
  0.582456887       5.36030112E-03  0.948896706      0.938841760      0.283889264      -6.29382879E-02  0.247068405       1.03291357E-02
  0.592476368       3.48527008E-03  0.950032413      0.940454066      0.280907124      -4.91834581E-02  0.242245629       1.03703747E-02