 title = "grid"
                                   variables = "x","y","rho","P","u","v","M","S"
 zone n=        3000  e =        5742  et=quadrilateral, f=fepoint
   0.00000000       0.00000000      0.955065787      0.937662840      0.357069075      -3.06816830E-04  0.304566175       2.19792128E-07
   1.00000000       0.00000000      0.944545031      0.932299852      0.317361742       5.64295857E-04  0.269975752       9.77185555E-03
   1.00000000      0.300000012      0.951300502      0.932507634      0.366113722       7.82860207E-06  0.312524915       1.74157321E-05
   0.00000000      0.300000012      0.955170631      0.937806845      0.356199324       4.52053864E-05  0.303817570       1.56462193E-07
   1.00000000       1.03448275E-02  0.946043670      0.932358027      0.324028045       8.45150091E-04  0.275857180       7.61480629E-03
   1.00000000       2.06896551E-02  0.947756946      0.932396829      0.332230926       1.09072030E-03  0.283091277       5.12331352E-03
   1.00000000       3.10344826E-02  0.948896825      0.932424784      0.338553637       1.22990657E-03  0.288648248       3.47051211E-03
   1.00000000       4.13793102E-02  0.949667752      0.932444870      0.343732476       1.29721267E-03  0.293179691       2.35510990E-03
   1.00000000       5.17241396E-02  0.950191319      0.932459891      0.348017067       1.31467951E-03  0.296913564       1.59955211E-03
   1.00000000       6.20689653E-02  0.950546980      0.932471216      0.351545721       1.29746285E-03  0.299978316       1.08780712E-03
   1.00000000       7.24137947E-02  0.950787544      0.932479918      0.354423821       1.25594810E-03  0.302470893       7.42841512E-04
   1.00000000       8.27586204E-02  0.950949609      0.932486296      0.356744409       1.19772647E-03  0.304476023       5.11037186E-04
   1.00000000       9.31034461E-02  0.951058567      0.932491243      0.358596712       1.12833956E-03  0.306073457       3.55985016E-04
   1.00000000      0.103448279      0.951131642      0.932494938      0.360062838       1.05228240E-03  0.307335824       2.52351165E-04
   1.00000000      0.113793105      0.951181114      0.932497561      0.361217111       9.72770504E-04  0.308328480       1.82365999E-04
   1.00000000      0.124137931      0.951214492      0.932499468      0.362125427       8.92282987E-04  0.309108704       1.35244802E-04
   1.00000000      0.134482756      0.951237679      0.932500780      0.362843573       8.12629180E-04  0.309725106       1.02590770E-04
   1.00000000      0.144827589      0.951253593      0.932501554      0.363416046       7.35272653E-04  0.310216099       7.99577683E-05
   1.00000000      0.155172408      0.951265156      0.932501912      0.363878697       6.61021506E-04  0.310612738       6.33727759E-05
   1.00000000      0.165517241      0.951272964      0.932502031      0.364259034       5.90631855E-04  0.310938567       5.19994646E-05
   1.00000000      0.175862074      0.951278508      0.932501853      0.364577413       5.24502771E-04  0.311211139       4.36492264E-05
   1.00000000      0.186206892      0.951282263      0.932501554      0.364848375       4.62906290E-04  0.311443061       3.77353281E-05
   1.00000000      0.196551725      0.951285362      0.932501078      0.365081817       4.05851606E-04  0.311642885       3.26596200E-05
   1.00000000      0.206896558      0.951287687      0.932500601      0.365284652       3.53343086E-04  0.311816424       2.87797302E-05
   1.00000000      0.217241377      0.951289415      0.932500124      0.365461081       3.05139198E-04  0.311967373       2.57454813E-05
   1.00000000      0.227586210      0.951290905      0.932499826      0.365613967       2.60848639E-04  0.312098145       2.32346356E-05
   1.00000000      0.237931028      0.951292038      0.932499528      0.365744770       2.20004455E-04  0.312209994       2.12341547E-05
   1.00000000      0.248275861      0.951293051      0.932499528      0.365854353       1.81916315E-04  0.312303722       1.97011977E-05
   1.00000000      0.258620679      0.951293707      0.932499707      0.365943134       1.45875689E-04  0.312379539       1.89449638E-05
   1.00000000      0.268965513      0.951294899      0.932500660      0.366011530       1.10662921E-04  0.312437922       1.81961805E-05
   1.00000000      0.279310346      0.951296508      0.932502210      0.366059840       7.45023644E-05  0.312479168       1.75330788E-05
   1.00000000      0.289655179      0.951298714      0.932505250      0.366089791       3.41829400E-05  0.312504619       1.75032765E-05
  0.989898980      0.300000012      0.951300621      0.932507753      0.366074413       1.74958714E-05  0.312491357       1.73654407E-05
  0.979797959      0.300000012      0.951309204      0.932519197      0.365997344       9.67687538E-06  0.312425047       1.70543790E-05
  0.969696999      0.300000012      0.951331437      0.932549536      0.365908593       2.78049174E-06  0.312347859       1.68979168E-05
  0.959595978      0.300000012      0.951366961      0.932597876      0.365807414      -3.76963771E-06  0.312259257       1.64210796E-05
  0.949494958      0.300000012      0.951415122      0.932663560      0.365694642      -1.02469112E-05  0.312159896       1.60019845E-05
  0.939393938      0.300000012      0.951474845      0.932745218      0.365571707      -1.67525250E-05  0.312051088       1.56275928E-05
  0.929292917      0.300000012      0.951544821      0.932841063      0.365440369      -2.33648407E-05  0.311934412       1.54692680E-05
  0.919191897      0.300000012      0.951623738      0.932949007      0.365302950      -3.01819418E-05  0.311812013       1.50650740E-05
  0.909090936      0.300000012      0.951709926      0.933067083      0.365161806      -3.70619782E-05  0.311685950       1.48322433E-05
  0.898989916      0.300000012      0.951801717      0.933192790      0.365019828      -4.41280499E-05  0.311558783       1.44839287E-05
  0.888888896      0.300000012      0.951897144      0.933323681      0.364879727      -5.14010535E-05  0.311432958       1.43814832E-05
  0.878787875      0.300000012      0.951994121      0.933457017      0.364745021      -5.88348084E-05  0.311311603       1.46012753E-05
  0.868686855      0.300000012      0.952091217      0.933590055      0.364618629      -6.64331747E-05  0.311197460       1.43609941E-05
  0.858585835      0.300000012      0.952186108      0.933719933      0.364504188      -7.41995245E-05  0.311093599       1.39456242E-05
  0.848484874      0.300000012      0.952276409      0.933843851      0.364405006      -8.21991489E-05  0.311003059       1.38785690E-05
  0.838383853      0.300000012      0.952360153      0.933958948      0.364324540      -9.03355394E-05  0.310928941       1.40182674E-05
  0.828282833      0.300000012      0.952435553      0.934062243      0.364266545      -9.85897859E-05  0.310874581       1.37742609E-05
  0.818181813      0.300000012      0.952500522      0.934151113      0.364234388      -1.07009386E-04  0.310842931       1.34091824E-05
  0.808080792      0.300000012      0.952552736      0.934222639      0.364231467      -1.15526513E-04  0.310837090       1.32452697E-05
  0.797979772      0.300000012      0.952590466      0.934274256      0.364261210      -1.24096667E-04  0.310860008       1.30087137E-05
  0.787878811      0.300000012      0.952612102      0.934303582      0.364326805      -1.32747766E-04  0.310914636       1.26250088E-05
  0.777777791      0.300000012      0.952615559      0.934308290      0.364431173      -1.41383542E-04  0.311003506       1.25635415E-05
  0.767676771      0.300000012      0.952599525      0.934286177      0.364577115      -1.50018721E-04  0.311129093       1.25020742E-05
  0.757575750      0.300000012      0.952562749      0.934235394      0.364767194      -1.58580049E-04  0.311293781       1.22115016E-05
  0.747474730      0.300000012      0.952504337      0.934154809      0.365003675      -1.67127509E-04  0.311499447       1.17439777E-05
  0.737373710      0.300000012      0.952423036      0.934042871      0.365288407      -1.75418943E-04  0.311747849       1.14329159E-05
  0.727272749      0.300000012      0.952318370      0.933898985      0.365622938      -1.83465265E-04  0.312040240       1.11982226E-05
  0.717171729      0.300000012      0.952189922      0.933722615      0.366008282      -1.91134721E-04  0.312377512       1.11814588E-05
  0.707070708      0.300000012      0.952038050      0.933513939      0.366444558      -1.98302354E-04  0.312759906       1.09765679E-05
  0.696969688      0.300000012      0.951862812      0.933273375      0.366931617      -2.04696757E-04  0.313187152       1.10045075E-05
  0.686868668      0.300000012      0.951664925      0.933001459      0.367467999      -2.10044425E-04  0.313658059       1.07046217E-05
  0.676767647      0.300000012      0.951445401      0.932700098      0.368051708      -2.14051441E-04  0.314170808       1.06319785E-05
  0.666666687      0.300000012      0.951205730      0.932371080      0.368678987      -2.16257977E-04  0.314722121       1.04457140E-05
  0.656565666      0.300000012      0.950947464      0.932016790      0.369345069      -2.16195767E-04  0.315307856       1.05854124E-05
  0.646464646      0.300000012      0.950673103      0.931640387      0.370043665      -2.13252089E-04  0.315922439       1.06394291E-05
  0.636363626      0.300000012      0.950385571      0.931245446      0.370766580      -2.06981000E-04  0.316558838       1.01029873E-05
  0.626262605      0.300000012      0.950087547      0.930836618      0.371504307      -1.96754685E-04  0.317208648       1.01309270E-05
  0.616161644      0.300000012      0.949782789      0.930418313      0.372245818      -1.82011005E-04  0.317862213       9.77516174E-06
  0.606060624      0.300000012      0.949474871      0.929996073      0.372978300      -1.62310142E-04  0.318508327       9.80496407E-06
  0.595959604      0.300000012      0.949168384      0.929575682      0.373687863      -1.37348412E-04  0.319134891       9.60938632E-06
  0.585858583      0.300000012      0.948867321      0.929163039      0.374360085      -1.07091808E-04  0.319729179       9.80496407E-06
  0.575757563      0.300000012      0.948576272      0.928763926      0.374980122      -7.19538075E-05  0.320278436       9.59448516E-06
  0.565656543      0.300000012      0.948299229      0.928384066      0.375533998      -3.26976733E-05  0.320770264       9.49576497E-06
  0.555555582      0.300000012      0.948039830      0.928028226      0.376009405       9.57303018E-06  0.321193963       9.15117562E-06
  0.545454562      0.300000012      0.947800815      0.927700639      0.376396865       5.33499806E-05  0.321541160       9.11392272E-06
  0.535353541      0.300000012      0.947584450      0.927404046      0.376689583       9.72004418E-05  0.321805984       8.96118581E-06
  0.525252521      0.300000012      0.947391987      0.927140176      0.376884431       1.39978816E-04  0.321985543       8.78609717E-06
  0.515151501      0.300000012      0.947224617      0.926910520      0.376980186       1.81646377E-04  0.322078794       8.36700201E-06
  0.505050480      0.300000012      0.947083414      0.926717043      0.376976788       2.22809977E-04  0.322085530       8.38004053E-06
  0.494949490      0.300000012      0.946969688      0.926561296      0.376873940       2.63895112E-04  0.322005421       8.41170549E-06
  0.484848499      0.300000012      0.946883678      0.926443517      0.376673698       3.04378482E-04  0.321840197       8.42846930E-06
  0.474747479      0.300000012      0.946825206      0.926363230      0.376380056       3.44172702E-04  0.321593314       8.21053982E-06
  0.464646459      0.300000012      0.946794033      0.926320195      0.375997424       3.84246960E-04  0.321268588       7.85849988E-06
  0.454545468      0.300000012      0.946789742      0.926314175      0.375528932       4.24582657E-04  0.320868641       7.72997737E-06
  0.444444448      0.300000012      0.946810901      0.926342905      0.374979526       4.63303382E-04  0.320397884       7.43381679E-06
  0.434343427      0.300000012      0.946854770      0.926403105      0.374358118       4.97700588E-04  0.319863975       7.53626227E-06
  0.424242437      0.300000012      0.946918666      0.926490068      0.373676658       5.26114542E-04  0.319277525       6.92345202E-06
  0.414141417      0.300000012      0.946998894      0.926599622      0.372948676       5.47675474E-04  0.318650186       6.62170351E-06
  0.404040396      0.300000012      0.947092474      0.926727414      0.372188091       5.62396774E-04  0.317994148       6.12251461E-06
  0.393939406      0.300000012      0.947196543      0.926869631      0.371408015       5.70649398E-04  0.317320764       5.80400229E-06
  0.383838385      0.300000012      0.947308719      0.927022755      0.370620072       5.72967576E-04  0.316640168       5.12786210E-06
  0.373737365      0.300000012      0.947426558      0.927183688      0.369834602       5.70019998E-04  0.315961331       4.59700823E-06
  0.363636374      0.300000012      0.947548211      0.927349985      0.369060725       5.62418951E-04  0.315292120       4.22634184E-06
  0.353535354      0.300000012      0.947672427      0.927519619      0.368306130       5.51051926E-04  0.314639300       3.62284482E-06
  0.343434334      0.300000012      0.947798193      0.927691579      0.367576331       5.36864856E-04  0.314007580       3.21492553E-06
  0.333333343      0.300000012      0.947925091      0.927865088      0.366875619       5.20409434E-04  0.313400626       2.74926424E-06
  0.323232323      0.300000012      0.948052704      0.928039670      0.366206944       5.02156676E-04  0.312821031       2.42702663E-06
  0.313131303      0.300000012      0.948180914      0.928215325      0.365572453       4.82489122E-04  0.312270582       2.42516398E-06
  0.303030312      0.300000012      0.948310077      0.928392231      0.364973396       4.61865624E-04  0.311750352       2.22772360E-06
  0.292929292      0.300000012      0.948440373      0.928570807      0.364410192       4.40620031E-04  0.311260730       2.25938857E-06
  0.282828271      0.300000012      0.948572636      0.928751707      0.363882482       4.18964773E-04  0.310801387       1.81607902E-06
  0.272727281      0.300000012      0.948707283      0.928935945      0.363389522       3.97134601E-04  0.310371578       1.48080289E-06
  0.262626261      0.300000012      0.948844910      0.929124594      0.362930030       3.75402160E-04  0.309970051       1.46962702E-06
  0.252525240      0.300000012      0.948986471      0.929318726      0.362502575       3.53899522E-04  0.309595704       1.50129199E-06
  0.242424250      0.300000012      0.949132919      0.929519415      0.362104982       3.32850090E-04  0.309246629       1.44727528E-06
  0.232323229      0.300000012      0.949285030      0.929727793      0.361734897       3.12408956E-04  0.308920652       1.24797225E-06
  0.222222224      0.300000012      0.949443638      0.929944932      0.361390203       2.92662589E-04  0.308616012       8.77305865E-07
  0.212121218      0.300000012      0.949609280      0.930171907      0.361068189       2.73804384E-04  0.308330297       6.35161996E-07
  0.202020198      0.300000012      0.949782848      0.930409968      0.360766083       2.55829829E-04  0.308061033       6.68689609E-07
  0.191919193      0.300000012      0.949964762      0.930659592      0.360481262       2.38728724E-04  0.307806015       8.66129994E-07
  0.181818187      0.300000012      0.950155914      0.930921674      0.360210955       2.22634189E-04  0.307562798       7.52508640E-07
  0.171717167      0.300000012      0.950356483      0.931196928      0.359952897       2.07487159E-04  0.307329476       8.79168510E-07
  0.161616161      0.300000012      0.950567067      0.931485772      0.359704584       1.93260945E-04  0.307103872       8.19563866E-07
  0.151515156      0.300000012      0.950788021      0.931788743      0.359464198       1.79880692E-04  0.306884378       6.79865479E-07
  0.141414136      0.300000012      0.951019228      0.932106078      0.359230161       1.67193823E-04  0.306669652       7.05942512E-07
  0.131313130      0.300000012      0.951260805      0.932437658      0.359001130       1.55139554E-04  0.306458533       8.69855285E-07
  0.121212125      0.300000012      0.951513112      0.932783842      0.358776063       1.43631172E-04  0.306250185       7.65547156E-07
  0.111111112      0.300000012      0.951775849      0.933144510      0.358554423       1.32567235E-04  0.306044072       7.91624188E-07
  0.101010099      0.300000012      0.952049077      0.933519602      0.358335584       1.22035017E-04  0.305839747       8.92207026E-07
   9.09090936E-02  0.300000012      0.952332675      0.933908701      0.358118951       1.12041140E-04  0.305636674       5.68106771E-07
   8.08080807E-02  0.300000012      0.952626050      0.934311509      0.357903987       1.02657665E-04  0.305434376       6.38887286E-07
   7.07070678E-02  0.300000012      0.952929199      0.934727728      0.357689679       9.40428872E-05  0.305232078       5.49480319E-07
   6.06060624E-02  0.300000012      0.953241765      0.935156763      0.357474983       8.63163150E-05  0.305028886       3.11061740E-07
   5.05050495E-02  0.300000012      0.953563035      0.935598195      0.357258409       7.96176028E-05  0.304823518       4.43309546E-07
   4.04040404E-02  0.300000012      0.953892708      0.936051011      0.357038736       7.38933741E-05  0.304615051       3.70666385E-07
   3.03030312E-02  0.300000012      0.954230011      0.936514318      0.356815100       6.89761000E-05  0.304402739       3.05473804E-07
   2.02020202E-02  0.300000012      0.954573572      0.936986268      0.356587410       6.42494415E-05  0.304186583       1.02445483E-07
   1.01010101E-02  0.300000012      0.954920948      0.937463582      0.356359422       5.77272731E-05  0.303970039       6.33299351E-08
   0.00000000      0.289655179      0.955194235      0.937839270      0.356163859       3.81646241E-05  0.303785801       9.68575478E-08
   0.00000000      0.279310346      0.955204964      0.937853932      0.356124163       3.83542683E-05  0.303751290       4.65661287E-08
   0.00000000      0.268965513      0.955217183      0.937870800      0.356080711       4.07637053E-05  0.303713411       7.63684511E-08
   0.00000000      0.258620679      0.955231607      0.937890649      0.356031209       4.36549708E-05  0.303670287       1.11758709E-07
   0.00000000      0.248275861      0.955248177      0.937913477      0.355975181       4.64750083E-05  0.303621441       1.49011612E-07
   0.00000000      0.237931028      0.955266953      0.937939405      0.355913043       4.86858262E-05  0.303567231       3.11061740E-07
   0.00000000      0.227586210      0.955287635      0.937967539      0.355845243       5.01468057E-05  0.303508103      -4.47034836E-08
   0.00000000      0.217241377      0.955309808      0.937998116      0.355772913       5.05389507E-05  0.303445011       9.12696123E-08
   0.00000000      0.206896558      0.955333233      0.938030362      0.355697274       4.97573601E-05  0.303378999       1.06170774E-07
   0.00000000      0.196551725      0.955357492      0.938063741      0.355619878       4.76322712E-05  0.303311437       1.52736902E-07
   0.00000000      0.186206892      0.955381930      0.938097298      0.355542660       4.39800569E-05  0.303244025       1.19209290E-07
   0.00000000      0.175862074      0.955406368      0.938130677      0.355467141       3.86909123E-05  0.303178102      -9.12696123E-08
   0.00000000      0.165517241      0.955429733      0.938163042      0.355395794       3.14461358E-05  0.303115726       1.28522515E-07
   0.00000000      0.155172408      0.955451727      0.938193083      0.355330914       2.21684222E-05  0.303059042      -1.30385160E-08
   0.00000000      0.144827589      0.955471456      0.938220263      0.355275005       1.05880836E-05  0.303010106       3.72529030E-08
   0.00000000      0.134482756      0.955488145      0.938243330      0.355230957      -3.39859025E-06  0.302971452       1.47148967E-07
   0.00000000      0.124137931      0.955501080      0.938261092      0.355201870      -1.99164078E-05  0.302945852       1.41561031E-07
   0.00000000      0.113793105      0.955509245      0.938272119      0.355190933      -3.91936228E-05  0.302935988      -5.77419996E-08
   0.00000000      0.103448279      0.955511808      0.938275635      0.355201453      -6.14005112E-05  0.302944809      -1.13621354E-07
   0.00000000       9.31034461E-02  0.955507755      0.938270032      0.355237186      -8.68807547E-05  0.302975595      -1.04308128E-07
   0.00000000       8.27586204E-02  0.955495894      0.938253939      0.355302125      -1.15626193E-04  0.303031683       1.28522515E-07
   0.00000000       7.24137947E-02  0.955475271      0.938225508      0.355400264      -1.47800063E-04  0.303116709       1.30385160E-08
   0.00000000       6.20689653E-02  0.955444872      0.938183725      0.355535835      -1.83223921E-04  0.303234279      -2.04890966E-08
   0.00000000       5.17241396E-02  0.955403507      0.938126802      0.355713278      -2.21730719E-04  0.303388268      -5.40167093E-08
   0.00000000       4.13793102E-02  0.955349922      0.938053071      0.355937660      -2.62012414E-04  0.303583115      -1.45286322E-07
   0.00000000       3.10344826E-02  0.955283165      0.937961519      0.356213659      -3.00983171E-04  0.303822726       1.43423676E-07
   0.00000000       2.06896551E-02  0.955202997      0.937851250      0.356546640      -3.31731280E-04  0.304111898       0.00000000    
   0.00000000       1.03448275E-02  0.955109060      0.937722266      0.356942207      -3.37494013E-04  0.304455280       1.99303031E-07
   1.01942774E-02  -1.06002917E-05  0.955073357      0.937673390      0.357077926      -5.39412780E-04  0.304573476       3.96743417E-07
   2.03885511E-02  -4.05888240E-05  0.955086470      0.937691510      0.356993228      -1.12093834E-03  0.304501504       4.84287739E-07
   3.05827484E-02  -8.74972393E-05  0.955130756      0.937752366      0.356789529      -1.65337475E-03  0.304326683       4.45172191E-07
   4.07768898E-02  -1.49138228E-04  0.955189526      0.937833428      0.356507331      -2.12118914E-03  0.304084361       8.04662704E-07
   5.09709269E-02  -2.23550553E-04  0.955255568      0.937924206      0.356168956      -2.52604671E-03  0.303793818       7.58096576E-07
   6.11648858E-02  -3.08956922E-04  0.955324173      0.938018560      0.355787873      -2.87184119E-03  0.303466588       8.02800059E-07
   7.13587478E-02  -4.03728453E-04  0.955392361      0.938112319      0.355372697      -3.16248625E-03  0.303110301       8.51228833E-07
   8.15525427E-02  -5.06357115E-04  0.955458343      0.938203096      0.354929537      -3.40166083E-03  0.302730083       8.99657607E-07
   9.17462707E-02  -6.15430705E-04  0.955520928      0.938289106      0.354462504      -3.59222596E-03  0.302329391       8.56816769E-07
  0.101939946      -7.29613879E-04  0.955579281      0.938369572      0.353974432      -3.73672624E-03  0.301910669       1.14366412E-06
  0.112133577      -8.47629446E-04  0.955633163      0.938443899      0.353467196      -3.83695890E-03  0.301475585       1.41188502E-06
  0.122327171      -9.68243345E-04  0.955682755      0.938512087      0.352941871      -3.89448181E-03  0.301025003       1.41002238E-06
  0.132520750      -1.09024998E-03  0.955727994      0.938574553      0.352399051      -3.91016249E-03  0.300559342       1.72480941E-06
  0.142714337      -1.21245917E-03  0.955769539      0.938631773      0.351838291      -3.88447568E-03  0.300078213       1.80676579E-06
  0.152907923      -1.33368257E-03  0.955807745      0.938684523      0.351259053      -3.81746981E-03  0.299581230       2.01724470E-06
  0.163101539      -1.45272142E-03  0.955843508      0.938733816      0.350659698      -3.70867271E-03  0.299066842       2.16998160E-06
  0.173295200      -1.56835280E-03  0.955877542      0.938780725      0.350038350      -3.55717447E-03  0.298533499       2.31713057E-06
  0.183488905      -1.67931605E-03  0.955910683      0.938826323      0.349392325      -3.36160534E-03  0.297978908       2.34879553E-06
  0.193682685      -1.78429752E-03  0.955943823      0.938872159      0.348718226      -3.12008057E-03  0.297399998       2.61515379E-06
  0.203876525      -1.88191328E-03  0.955978215      0.938919842      0.348011881      -2.82998825E-03  0.296793342       3.03238630E-06
  0.214070454      -1.97069068E-03  0.956015289      0.938971102      0.347268462      -2.48828763E-03  0.296154797       3.37138772E-06
  0.224264458      -2.04904471E-03  0.956056178      0.939027607      0.346482307      -2.09103734E-03  0.295479596       3.68617475E-06
  0.234458551      -2.11525219E-03  0.956102788      0.939091802      0.345646501      -1.63351127E-03  0.294761866       3.78303230E-06
  0.244652733      -2.16741930E-03  0.956156731      0.939166367      0.344753385      -1.10983534E-03  0.293995082       4.13693488E-06
  0.254846990      -2.20344099E-03  0.956220210      0.939254045      0.343793809      -5.12836035E-04  0.293171644       4.59887087E-06
  0.265041292      -2.22095218E-03  0.956295788      0.939358652      0.342756838       1.66348837E-04  0.292282343       5.33089042E-06
  0.275235593      -2.21726228E-03  0.956386566      0.939483941      0.341629833       9.38754994E-04  0.291316777       5.75929880E-06
  0.285429865      -2.18927371E-03  0.956496179      0.939635515      0.340397626       1.81800488E-03  0.290262312       6.63846731E-06
  0.295624018      -2.13337177E-03  0.956628740      0.939818621      0.339041591       2.82167178E-03  0.289103746       7.52322376E-06
  0.305817962      -2.04527588E-03  0.956789494      0.940040648      0.337539196       3.97189986E-03  0.287822753       8.50483775E-06
  0.316011488      -1.91983546E-03  0.956984699      0.940310061      0.335862249       5.29804733E-03  0.286396801       9.38586891E-06
  0.326204360      -1.75073801E-03  0.957221448      0.940637231      0.333975136       6.83892425E-03  0.284797579       1.09504908E-05
  0.336396307      -1.53008103E-03  0.957509041      0.941035092      0.331832856       8.64757504E-03  0.282990158       1.33216381E-05
  0.346586645      -1.24772848E-03  0.957859218      0.941519499      0.329376787       1.07989162E-02  0.280930191       1.59870833E-05
  0.356774658      -8.90274358E-04  0.958286285      0.942110479      0.326529920       1.34021947E-02  0.278561562       1.94832683E-05
  0.366958946      -4.39326104E-04  0.958809376      0.942834914      0.323190123       1.66455843E-02  0.275814861       2.40858644E-05
  0.377137065       1.33766516E-04  0.959469855      0.943751931      0.319267750       2.13727709E-02  0.272677124       3.22367996E-05
  0.387299746       9.32033930E-04  0.960140705      0.944686711      0.315418720       2.85159294E-02  0.269845128       4.36436385E-05
  0.397434235       2.03104783E-03  0.960556030      0.945274115      0.312383920       3.76597494E-02  0.268065155       5.98430634E-05
  0.407523632       3.48527054E-03  0.960611045      0.945372820      0.310465455       4.86899689E-02  0.267730385       8.40462744E-05
  0.417543113       5.36030158E-03  0.960187495      0.944828570      0.310093343       6.20838813E-02  0.269441307       1.25633553E-04
  0.427456856       7.73026003E-03  0.959007680      0.943274736      0.312230736       7.85043240E-02  0.274356067       2.00944021E-04
  0.437217921       1.06651187E-02  0.956550300      0.940026879      0.318713099       9.85556990E-02  0.284413576       3.43864784E-04
  0.446780443       1.41935814E-02  0.951885939      0.933862984      0.332774550      0.121923298      0.302405000       6.08526170E-04
  0.456144422       1.82216074E-02  0.943596125      0.922897577      0.359180450      0.144999802      0.331016332       1.04282051E-03
  0.465438336       2.24102195E-02  0.930513442      0.905563593      0.401243567      0.157454222      0.369272500       1.62851438E-03
  0.474928796       2.61229333E-02  0.914301157      0.884101748      0.452123940      0.144561112      0.407965600       2.25026533E-03
  0.484786808       2.86871437E-02  0.900558174      0.866051257      0.493012369      0.102282882      0.433939040       2.82552093E-03
  0.494905144       2.98680626E-02  0.893783569      0.857479036      0.510391891       4.66582850E-02  0.442233205       3.44969332E-03
  0.505094886       2.98680626E-02  0.892802536      0.856803179      0.507277071      -7.56912678E-03  0.437690109       4.19870391E-03
  0.515213192       2.86871418E-02  0.894288242      0.859791517      0.488462299      -6.21141680E-02  0.424416691       5.35262749E-03
  0.525071204       2.61229314E-02  0.898243964      0.866515219      0.453441620     -0.113484234      0.402215511       6.96339086E-03
  0.534561634       2.24102195E-02  0.906310618      0.878755689      0.408076167     -0.144562960      0.371581227       8.47405568E-03
  0.543855608       1.82216056E-02  0.917578220      0.894960284      0.364107370     -0.146114305      0.335743964       9.44846123E-03
  0.553219557       1.41935805E-02  0.928375423      0.910201848      0.329709470     -0.127236888      0.301651806       9.95784253E-03
  0.562782109       1.06651178E-02  0.936050594      0.920970261      0.306814581     -0.102873430      0.275723517       1.01925116E-02
  0.572543144       7.73025956E-03  0.940605104      0.927340746      0.293320477      -8.10869336E-02  0.259032100       1.02904588E-02
  0.582456887       5.36030112E-03  0.943061292      0.930773020      0.286153615      -6.35373816E-02  0.249363810       1.03338026E-02
  0.592476368       3.48527008E-03  0.944275558      0.932469904      0.282973170      -4.96349186E-02  0.244339392       1.03537869E-02