 title = "grid"
                                   variables = "x","y","rho","P","u","v","M","S"
 zone n=        3000  e =        5742  et=quadrilateral, f=fepoint
   0.00000000       0.00000000      0.954636991      0.937073350      0.358552933      -2.67861702E-04  0.305859298       7.82310963E-08
   1.00000000       0.00000000      0.944588482      0.932370126      0.317111254       5.51530684E-04  0.269758672       9.78287868E-03
   1.00000000      0.300000012      0.951183498      0.932345927      0.363618761      -4.14106071E-05  0.310402989       1.62143260E-05
   0.00000000      0.300000012      0.954410076      0.936761498      0.359639376       2.43069426E-05  0.306800604      -1.86264515E-09
   1.00000000       1.03448275E-02  0.946090877      0.932422936      0.323766053       7.89880054E-04  0.275631309       7.61456043E-03
   1.00000000       2.06896551E-02  0.947805882      0.932459295      0.331934005       9.81557649E-04  0.282835811       5.11797704E-03
   1.00000000       3.10344826E-02  0.948939621      0.932482541      0.338214636       1.06889813E-03  0.288356304       3.46925855E-03
   1.00000000       4.13793102E-02  0.949704468      0.932496309      0.343341380       1.08743575E-03  0.292843103       2.35607661E-03
   1.00000000       5.17241396E-02  0.950222671      0.932503283      0.347565085       1.05994137E-03  0.296525240       1.59990415E-03
   1.00000000       6.20689653E-02  0.950572252      0.932505190      0.351024777       1.00186106E-03  0.299531460       1.08701177E-03
   1.00000000       7.24137947E-02  0.950805664      0.932503164      0.353823960       9.23830143E-04  0.301957220       7.41122290E-04
   1.00000000       8.27586204E-02  0.950959921      0.932497919      0.356057018       8.33785569E-04  0.303888261       5.08347526E-04
   1.00000000       9.31034461E-02  0.951060593      0.932490468      0.357813895       7.37597002E-04  0.305404902       3.52146104E-04
   1.00000000      0.103448279      0.951124728      0.932481110      0.359178126       6.39762962E-04  0.306580991       2.47729942E-04
   1.00000000      0.113793105      0.951164186      0.932470262      0.360225230       5.43794536E-04  0.307482809       1.77990645E-04
   1.00000000      0.124137931      0.951187432      0.932458341      0.361021668       4.52178734E-04  0.308168292       1.31009147E-04
   1.00000000      0.134482756      0.951200187      0.932445645      0.361623883       3.66710301E-04  0.308686405       9.85749066E-05
   1.00000000      0.144827589      0.951206207      0.932432711      0.362077802       2.88752199E-04  0.309076935       7.58636743E-05
   1.00000000      0.155172408      0.951207101      0.932419598      0.362420857       2.19106834E-04  0.309372067       6.04577363E-05
   1.00000000      0.165517241      0.951205254      0.932406485      0.362682134       1.58250550E-04  0.309596926       4.91458923E-05
   1.00000000      0.175862074      0.951201379      0.932393789      0.362883627       1.06382198E-04  0.309770405       4.12259251E-05
   1.00000000      0.186206892      0.951196492      0.932381392      0.363041103       6.33347736E-05  0.309906065       3.51369381E-05
   1.00000000      0.196551725      0.951191425      0.932369828      0.363166094       2.87924540E-05  0.310013890       3.02232802E-05
   1.00000000      0.206896558      0.951185942      0.932358980      0.363267004       2.20310426E-06  0.310100943       2.66209245E-05
   1.00000000      0.217241377      0.951180637      0.932349145      0.363349557      -1.71286301E-05  0.310172170       2.38586217E-05
   1.00000000      0.227586210      0.951175988      0.932340205      0.363417566      -3.00309875E-05  0.310230941       2.11391598E-05
   1.00000000      0.237931028      0.951171696      0.932332575      0.363473743      -3.74074953E-05  0.310279489       1.93025917E-05
   1.00000000      0.248275861      0.951168001      0.932326138      0.363519937      -4.05155042E-05  0.310319364       1.78106129E-05
   1.00000000      0.258620679      0.951164663      0.932321191      0.363557369      -4.05262908E-05  0.310351610       1.73766166E-05
   1.00000000      0.268965513      0.951162398      0.932317555      0.363586426      -3.89656379E-05  0.310376674       1.68960541E-05
   1.00000000      0.279310346      0.951161385      0.932315469      0.363607347      -3.74746669E-05  0.310394704       1.60876662E-05
   1.00000000      0.289655179      0.951161206      0.932315171      0.363620549      -3.82470062E-05  0.310405999       1.60466880E-05
  0.989898980      0.300000012      0.951082706      0.932207525      0.363652140      -3.99486162E-05  0.310438067       1.60913914E-05
  0.979797959      0.300000012      0.950849056      0.931886613      0.363736361      -4.32063171E-05  0.310525268       1.58008188E-05
  0.969696999      0.300000012      0.950621128      0.931573451      0.363821417      -4.61898271E-05  0.310612857       1.52830034E-05
  0.959595978      0.300000012      0.950400293      0.931270063      0.363905400      -4.92406580E-05  0.310699046       1.48583204E-05
  0.949494958      0.300000012      0.950188100      0.930978835      0.363987088      -5.25206488E-05  0.310782701       1.46888196E-05
  0.939393938      0.300000012      0.949986219      0.930701852      0.364065945      -5.61743909E-05  0.310863256       1.46422535E-05
  0.929292917      0.300000012      0.949795783      0.930440664      0.364141792      -6.02822074E-05  0.310940504       1.46478415E-05
  0.919191897      0.300000012      0.949617922      0.930196822      0.364214569      -6.49830617E-05  0.311014265       1.47130340E-05
  0.909090936      0.300000012      0.949453652      0.929971337      0.364284843      -7.03116893E-05  0.311085105       1.44802034E-05
  0.898989916      0.300000012      0.949303448      0.929765344      0.364353389      -7.63308635E-05  0.311153442       1.44019723E-05
  0.888888896      0.300000012      0.949167907      0.929579079      0.364421338      -8.31276702E-05  0.311220437       1.40294433E-05
  0.878787875      0.300000012      0.949047089      0.929413438      0.364490122      -9.06486021E-05  0.311287135       1.39940530E-05
  0.868686855      0.300000012      0.948941231      0.929267943      0.364561290      -9.89904438E-05  0.311354935       1.36476010E-05
  0.858585835      0.300000012      0.948850095      0.929142773      0.364636511      -1.08194254E-04  0.311425179       1.33309513E-05
  0.848484874      0.300000012      0.948773384      0.929037392      0.364717901      -1.18232434E-04  0.311499774       1.31074339E-05
  0.838383853      0.300000012      0.948710620      0.928951323      0.364807636      -1.29071559E-04  0.311580539       1.30943954E-05
  0.828282833      0.300000012      0.948661506      0.928883672      0.364907920      -1.40799122E-04  0.311669499       1.27386302E-05
  0.818181813      0.300000012      0.948625267      0.928833783      0.365021139      -1.53360103E-04  0.311768621       1.24927610E-05
  0.808080792      0.300000012      0.948600769      0.928799927      0.365149766      -1.66745798E-04  0.311880112       1.22431666E-05
  0.797979772      0.300000012      0.948587120      0.928781092      0.365296572      -1.80828691E-04  0.312006444       1.20885670E-05
  0.787878811      0.300000012      0.948583424      0.928775907      0.365464181      -1.95646557E-04  0.312149882       1.19358301E-05
  0.777777791      0.300000012      0.948588431      0.928782701      0.365655124      -2.11216757E-04  0.312312633       1.19060278E-05
  0.767676771      0.300000012      0.948600948      0.928799689      0.365872204      -2.27399767E-04  0.312497258       1.17477030E-05
  0.757575750      0.300000012      0.948619545      0.928825200      0.366118193      -2.44140043E-04  0.312706143       1.17570162E-05
  0.747474730      0.300000012      0.948642969      0.928857088      0.366395682      -2.61365873E-04  0.312941670       1.14906579E-05
  0.737373710      0.300000012      0.948669732      0.928893626      0.366706908      -2.78858119E-04  0.313205749       1.13528222E-05
  0.727272749      0.300000012      0.948698521      0.928933203      0.367053866      -2.96447921E-04  0.313500166       1.14366412E-05
  0.717171729      0.300000012      0.948728085      0.928973734      0.367438048      -3.13876546E-04  0.313826382       1.14571303E-05
  0.707070708      0.300000012      0.948757172      0.929013491      0.367860556      -3.30900046E-04  0.314185351       1.12950802E-05
  0.696969688      0.300000012      0.948784769      0.929051161      0.368321508      -3.47120920E-04  0.314577281       1.11851841E-05
  0.686868668      0.300000012      0.948809683      0.929085493      0.368820161      -3.62123421E-04  0.315001458       1.13174319E-05
  0.676767647      0.300000012      0.948831737      0.929115534      0.369354665      -3.75458651E-04  0.315456539       1.11702830E-05
  0.666666687      0.300000012      0.948850214      0.929140806      0.369922131      -3.86537664E-04  0.315939993       1.11106783E-05
  0.656565666      0.300000012      0.948865175      0.929161370      0.370518088      -3.94859380E-04  0.316447973       1.11162663E-05
  0.646464646      0.300000012      0.948877275      0.929177582      0.371136725      -3.99853830E-04  0.316975623       1.07008964E-05
  0.636363626      0.300000012      0.948887110      0.929190755      0.371771097      -4.00959660E-04  0.317516804       1.03991479E-05
  0.626262605      0.300000012      0.948895514      0.929202199      0.372412413      -3.97595490E-04  0.318063945       1.03302300E-05
  0.616161644      0.300000012      0.948904574      0.929214537      0.373050809      -3.89437657E-04  0.318608612       1.02166086E-05
  0.606060624      0.300000012      0.948916614      0.929230630      0.373675227      -3.75759206E-04  0.319141120       9.76584852E-06
  0.595959604      0.300000012      0.948933840      0.929253995      0.374273181      -3.56124219E-04  0.319650710       9.50694084E-06
  0.585858583      0.300000012      0.948959112      0.929288447      0.374831766      -3.30658513E-04  0.320126057       9.33185220E-06
  0.575757563      0.300000012      0.948995292      0.929338038      0.375338197      -2.99639534E-04  0.320556134       9.29273665E-06
  0.565656543      0.300000012      0.949044883      0.929405928      0.375780493      -2.63612688E-04  0.320930481       9.21636820E-06
  0.555555582      0.300000012      0.949110091      0.929495156      0.376147807      -2.23545518E-04  0.321239769       8.98726285E-06
  0.545454562      0.300000012      0.949192464      0.929607987      0.376431406      -1.80584946E-04  0.321476400       8.83266330E-06
  0.535353541      0.300000012      0.949292898      0.929745734      0.376624763      -1.36126051E-04  0.321634710       8.86619091E-06
  0.525252521      0.300000012      0.949411690      0.929908514      0.376723796      -9.14263874E-05  0.321711242       8.78609717E-06
  0.515151501      0.300000012      0.949548662      0.930096090      0.376726329      -4.74438675E-05  0.321704149       8.53464007E-06
  0.505050480      0.300000012      0.949703038      0.930307806      0.376632035      -4.48499623E-06  0.321613163       8.55885446E-06
  0.494949490      0.300000012      0.949874401      0.930542529      0.376441330       3.76624666E-05  0.321438789       8.25338066E-06
  0.484848499      0.300000012      0.950061500      0.930798948      0.376156956       7.88836333E-05  0.321183324       8.00751150E-06
  0.474747479      0.300000012      0.950262547      0.931074679      0.375783354       1.19028766E-04  0.320850760       8.00378621E-06
  0.464646459      0.300000012      0.950475931      0.931367457      0.375326157       1.58620183E-04  0.320446014       8.02800059E-06
  0.454545468      0.300000012      0.950700104      0.931674898      0.374790698       1.97775138E-04  0.319973797       7.91251659E-06
  0.444444448      0.300000012      0.950933218      0.931994379      0.374183744       2.35250147E-04  0.319440037       7.51949847E-06
  0.434343427      0.300000012      0.951172173      0.932321966      0.373515129       2.69438926E-04  0.318853289       7.16932118E-06
  0.424242437      0.300000012      0.951414108      0.932653487      0.372796506       2.98774074E-04  0.318223774       6.69993460E-06
  0.414141417      0.300000012      0.951655328      0.932984114      0.372040898       3.22639389E-04  0.317562759       6.22682273E-06
  0.404040396      0.300000012      0.951892912      0.933309793      0.371261537       3.40778817E-04  0.316881746       5.77978790E-06
  0.393939406      0.300000012      0.952124059      0.933626592      0.370470941       3.53417883E-04  0.316191733       5.17256558E-06
  0.383838385      0.300000012      0.952346146      0.933931112      0.369680434       3.61041166E-04  0.315502375       4.75533307E-06
  0.373737365      0.300000012      0.952557266      0.934220612      0.368899941       3.64147330E-04  0.314822376       4.41074371E-06
  0.363636374      0.300000012      0.952755749      0.934493124      0.368138075       3.63260624E-04  0.314159125       4.39770520E-06
  0.353535354      0.300000012      0.952940524      0.934746563      0.367401958       3.59114580E-04  0.313518822       4.05870378E-06
  0.343434334      0.300000012      0.953110695      0.934979975      0.366697133       3.52395786E-04  0.312906235       3.71597707E-06
  0.333333343      0.300000012      0.953266084      0.935192883      0.366027594       3.43690655E-04  0.312324822       3.23168933E-06
  0.323232323      0.300000012      0.953406096      0.935384810      0.365396649       3.33393662E-04  0.311777323       2.80514359E-06
  0.313131303      0.300000012      0.953530967      0.935555995      0.364806324       3.21884901E-04  0.311265528       2.41212547E-06
  0.303030312      0.300000012      0.953640461      0.935706437      0.364258289       3.09368392E-04  0.310790747       2.47731805E-06
  0.292929292      0.300000012      0.953735173      0.935836732      0.363752753       2.96279526E-04  0.310353220       2.65613198E-06
  0.282828271      0.300000012      0.953815758      0.935947239      0.363289833       2.82816414E-04  0.309953064       2.45124102E-06
  0.272727281      0.300000012      0.953882992      0.936039090      0.362868935       2.69186916E-04  0.309589654       1.89431012E-06
  0.262626261      0.300000012      0.953937232      0.936113179      0.362488896       2.55711551E-04  0.309261948       1.44354999E-06
  0.252525240      0.300000012      0.953979015      0.936170638      0.362148136       2.42379232E-04  0.308968544       1.55344605E-06
  0.242424250      0.300000012      0.954009712      0.936212659      0.361844599       2.29423400E-04  0.308707625       1.36904418E-06
  0.232323229      0.300000012      0.954030216      0.936240792      0.361576170       2.16906439E-04  0.308477223       1.33551657E-06
  0.222222224      0.300000012      0.954041541      0.936256170      0.361340225       2.04855256E-04  0.308275253       1.14738941E-06
  0.212121218      0.300000012      0.954044998      0.936260641      0.361134350       1.93302752E-04  0.308099419       8.53091478E-07
  0.202020198      0.300000012      0.954041302      0.936255872      0.360955745       1.82189950E-04  0.307947218       1.18650496E-06
  0.191919193      0.300000012      0.954032123      0.936243296      0.360802144       1.71591673E-04  0.307816774       1.20326877E-06
  0.181818187      0.300000012      0.954018772      0.936224997      0.360670716       1.61345859E-04  0.307705492       1.28336251E-06
  0.171717167      0.300000012      0.954002559      0.936202765      0.360559255       1.51404733E-04  0.307611436       1.25914812E-06
  0.161616161      0.300000012      0.953984976      0.936178327      0.360465348       1.41739059E-04  0.307532489       9.85339284E-07
  0.151515156      0.300000012      0.953967273      0.936153650      0.360387087       1.32315501E-04  0.307466954       6.44475222E-07
  0.141414136      0.300000012      0.953950644      0.936130762      0.360322267       1.23087215E-04  0.307412714       5.60656190E-07
  0.131313130      0.300000012      0.953936338      0.936111212      0.360268772       1.14033894E-04  0.307367980       6.66826963E-07
  0.121212125      0.300000012      0.953925669      0.936096787      0.360224456       1.05316052E-04  0.307330787       9.62987542E-07
  0.111111112      0.300000012      0.953920126      0.936089098      0.360187203       9.69476096E-05  0.307299376       8.45640898E-07
  0.101010099      0.300000012      0.953920603      0.936089635      0.360154331       8.90658339E-05  0.307271332       7.02217221E-07
   9.09090936E-02  0.300000012      0.953928173      0.936100125      0.360123307       8.17368855E-05  0.307244331       8.08387995E-07
   8.08080807E-02  0.300000012      0.953943968      0.936121702      0.360091686       7.49488463E-05  0.307216346       6.92903996E-07
   7.07070678E-02  0.300000012      0.953968704      0.936155558      0.360056758       6.86696003E-05  0.307184994       5.97909093E-07
   6.06060624E-02  0.300000012      0.954003155      0.936202824      0.360016316       6.28821726E-05  0.307148278       4.67523932E-07
   5.05050495E-02  0.300000012      0.954048157      0.936264813      0.359968662       5.73916004E-05  0.307104677       6.83590770E-07
   4.04040404E-02  0.300000012      0.954104424      0.936341822      0.359912694       5.19151290E-05  0.307053417       3.50177288E-07
   3.03030312E-02  0.300000012      0.954171956      0.936434507      0.359848082       4.61333657E-05  0.306993932       2.10478902E-07
   2.02020202E-02  0.300000012      0.954250872      0.936542749      0.359775394       3.97196418E-05  0.306926876       6.14672899E-08
   1.01010101E-02  0.300000012      0.954340458      0.936665833      0.359697223       3.18051098E-05  0.306854457       4.09781933E-08
   0.00000000      0.289655179      0.954417229      0.936771333      0.359624356       3.72781506E-05  0.306787312       5.02914190E-08
   0.00000000      0.279310346      0.954424679      0.936781645      0.359593809       5.58659121E-05  0.306760788       6.70552254E-08
   0.00000000      0.268965513      0.954437494      0.936799288      0.359541267       7.40242613E-05  0.306715131       1.86264515E-07
   0.00000000      0.258620679      0.954455435      0.936823905      0.359467119       9.10854869E-05  0.306650758       1.30385160E-07
   0.00000000      0.248275861      0.954478204      0.936855078      0.359372795       1.06876651E-04  0.306568861       1.86264515E-09
   0.00000000      0.237931028      0.954505444      0.936892569      0.359259784       1.20882221E-04  0.306470692       6.14672899E-08
   0.00000000      0.227586210      0.954536617      0.936935365      0.359129876       1.32898364E-04  0.306357861      -1.67638063E-08
   0.00000000      0.217241377      0.954571187      0.936982751      0.358985484       1.42603865E-04  0.306232512      -9.68575478E-08
   0.00000000      0.206896558      0.954608440      0.937034070      0.358829051       1.49862884E-04  0.306096643       1.11758709E-08
   0.00000000      0.196551725      0.954647839      0.937088132      0.358663410       1.54459020E-04  0.305952877      -1.11758709E-07
   0.00000000      0.186206892      0.954688370      0.937143922      0.358491659       1.56129201E-04  0.305803716       4.65661287E-08
   0.00000000      0.175862074      0.954729617      0.937200606      0.358316749       1.54713038E-04  0.305651873      -5.58793545E-09
   0.00000000      0.165517241      0.954770327      0.937256634      0.358142555       1.49899555E-04  0.305500656       1.39698386E-07
   0.00000000      0.155172408      0.954809844      0.937310934      0.357972741       1.41678189E-04  0.305353284       8.94069672E-08
   0.00000000      0.144827589      0.954847336      0.937362313      0.357810974       1.29805427E-04  0.305212885      -7.63684511E-08
   0.00000000      0.134482756      0.954881430      0.937409163      0.357661635       1.14086244E-04  0.305083364      -9.12696123E-08
   0.00000000      0.124137931      0.954911232      0.937450349      0.357528538       9.45757201E-05  0.304967880       1.82539225E-07
   0.00000000      0.113793105      0.954936028      0.937484086      0.357416242       7.11237371E-05  0.304870516      -1.86264515E-07
   0.00000000      0.103448279      0.954954326      0.937509298      0.357329041       4.35270085E-05  0.304794967      -1.50874257E-07
   0.00000000       9.31034461E-02  0.954965115      0.937524259      0.357271582       1.17522050E-05  0.304745227       1.49011612E-08
   0.00000000       8.27586204E-02  0.954967439      0.937527478      0.357248604      -2.42164442E-05  0.304725528       1.86264515E-09
   0.00000000       7.24137947E-02  0.954959929      0.937517405      0.357264787      -6.42578234E-05  0.304739743       3.03611159E-07
   0.00000000       6.20689653E-02  0.954941809      0.937492311      0.357324719      -1.08252490E-04  0.304792076       1.28522515E-07
   0.00000000       5.17241396E-02  0.954911709      0.937450945      0.357433647      -1.55719448E-04  0.304886937       1.00582838E-07
   0.00000000       4.13793102E-02  0.954868317      0.937391341      0.357596636      -2.04952943E-04  0.305028737       1.17346644E-07
   0.00000000       3.10344826E-02  0.954811096      0.937312543      0.357818812      -2.52408965E-04  0.305221945      -1.86264515E-09
   0.00000000       2.06896551E-02  0.954739273      0.937213838      0.358105451      -2.90138996E-04  0.305471092      -4.09781933E-08
   0.00000000       1.03448275E-02  0.954653502      0.937095881      0.358461708      -2.99415027E-04  0.305780470      -1.06170774E-07
   1.01942774E-02  -1.06002917E-05  0.954536438      0.936935246      0.358641177      -4.99462360E-04  0.305941254       1.19209290E-07
   2.03885511E-02  -4.05888240E-05  0.954297543      0.936607182      0.358722210      -1.07537338E-03  0.306026757       3.44589353E-07
   3.05827484E-02  -8.74972393E-05  0.954090357      0.936322808      0.358678311      -1.60714553E-03  0.306004167       6.51925802E-07
   4.07768898E-02  -1.49138228E-04  0.953899801      0.936060965      0.358551711      -2.07681186E-03  0.305910498       6.22123480E-07
   5.09709269E-02  -2.23550553E-04  0.953719437      0.935813367      0.358365148      -2.48538121E-03  0.305765092       8.23289156E-07
   6.11648858E-02  -3.08956922E-04  0.953546524      0.935575902      0.358131647      -2.83627538E-03  0.305579156       8.73580575E-07
   7.13587478E-02  -4.03728453E-04  0.953379154      0.935346186      0.357859164      -3.13290232E-03  0.305359513       1.03376806E-06
   8.15525427E-02  -5.06357115E-04  0.953216374      0.935122907      0.357552856      -3.37861129E-03  0.305110425       1.35414302E-06
   9.17462707E-02  -6.15430705E-04  0.953058243      0.934905648      0.357215613      -3.57608544E-03  0.304834425       1.32061541E-06
  0.101939946      -7.29613879E-04  0.952904642      0.934694886      0.356849253      -3.72764794E-03  0.304532945       1.50129199E-06
  0.112133577      -8.47629446E-04  0.952755749      0.934490442      0.356454462      -3.83496215E-03  0.304206520       1.54599547E-06
  0.122327171      -9.68243345E-04  0.952611744      0.934292853      0.356031895      -3.89954029E-03  0.303855687       1.64657831E-06
  0.132520750      -1.09024998E-03  0.952473342      0.934102833      0.355581313      -3.92219704E-03  0.303480208       1.66893005E-06
  0.142714337      -1.21245917E-03  0.952341080      0.933921576      0.355102211      -3.90335731E-03  0.303079545       2.03028321E-06
  0.152907923      -1.33368257E-03  0.952215910      0.933750212      0.354593664      -3.84313101E-03  0.302652895       2.50898302E-06
  0.163101539      -1.45272142E-03  0.952098906      0.933589697      0.354054540      -3.74111091E-03  0.302199244       2.68407166E-06
  0.173295200      -1.56835280E-03  0.951991081      0.933441699      0.353483140      -3.59635637E-03  0.301717162       2.70083547E-06
  0.183488905      -1.67931605E-03  0.951893330      0.933307707      0.352877259      -3.40756658E-03  0.301204622       2.92994082E-06
  0.193682685      -1.78429752E-03  0.951807261      0.933189631      0.352234095      -3.17280600E-03  0.300659239       2.98209488E-06
  0.203876525      -1.88191328E-03  0.951734304      0.933089554      0.351550043      -2.88954680E-03  0.300077885       2.98582017E-06
  0.214070454      -1.97069068E-03  0.951676071      0.933009744      0.350820839      -2.55469210E-03  0.299456924       3.15345824E-06
  0.224264458      -2.04904471E-03  0.951634228      0.932952642      0.350041032      -2.16409145E-03  0.298791677       3.54833901E-06
  0.234458551      -2.11525219E-03  0.951611042      0.932921469      0.349204153      -1.71298441E-03  0.298076540       4.23006713E-06
  0.244652733      -2.16741930E-03  0.951609135      0.932919085      0.348302364      -1.19543890E-03  0.297305048       4.48897481E-06
  0.254846990      -2.20344099E-03  0.951630831      0.932949185      0.347326338      -6.03944529E-04  0.296469241       4.77395952E-06
  0.265041292      -2.22095218E-03  0.951679230      0.933016062      0.346264482       7.04278209E-05  0.295559347       5.29736280E-06
  0.275235593      -2.21726228E-03  0.951757610      0.933124185      0.345103502       8.38974782E-04  0.294564277       5.84311783E-06
  0.285429865      -2.18927371E-03  0.951870024      0.933279335      0.343827248       1.71540014E-03  0.293470681       6.75022602E-06
  0.295624018      -2.13337177E-03  0.952021122      0.933487654      0.342416257       2.71740812E-03  0.292262465       7.77095556E-06
  0.305817962      -2.04527588E-03  0.952216566      0.933756948      0.340846837       3.86737543E-03  0.290920377       8.81403685E-06
  0.316011488      -1.91983546E-03  0.952462614      0.934096098      0.339089692       5.19481488E-03  0.289420784       1.02519989E-05
  0.326204360      -1.75073801E-03  0.952766955      0.934515536      0.337108463       6.73859427E-03  0.287734866       1.19041651E-05
  0.336396307      -1.53008103E-03  0.953139544      0.935028851      0.334856689       8.55193287E-03  0.285826355       1.36848539E-05
  0.346586645      -1.24772848E-03  0.953591645      0.935652018      0.332275033       1.07099283E-02  0.283650249       1.59591436E-05
  0.356774658      -8.90274358E-04  0.954137504      0.936405301      0.329285592       1.33223981E-02  0.281149536       1.95726752E-05
  0.366958946      -4.39326104E-04  0.954796314      0.937315285      0.325785309       1.65780727E-02  0.278254062       2.45831907E-05
  0.377137065       1.33766516E-04  0.955609500      0.938441038      0.321683824       2.13251784E-02  0.274950296       3.30489129E-05
  0.387299746       9.32033930E-04  0.956447840      0.939605057      0.317643642       2.85002477E-02  0.271941334       4.49996442E-05
  0.397434235       2.03104783E-03  0.957042038      0.940437853      0.314413518       3.76814529E-02  0.269981742       6.14374876E-05
  0.407523632       3.48527054E-03  0.957286537      0.940797448      0.312298745       4.87491861E-02  0.269467741       8.60746950E-05
  0.417543113       5.36030158E-03  0.957062900      0.940529108      0.311733514       6.21785261E-02  0.271003723       1.27922744E-04
  0.427456856       7.73026003E-03  0.956094086      0.939267695      0.313686967       7.86315724E-02  0.275753468       2.03765929E-04
  0.437217921       1.06651187E-02  0.953859389      0.936329901      0.320001841       9.87085700E-02  0.285662204       3.47221270E-04
  0.446780443       1.41935814E-02  0.949425697      0.930489957      0.333930641      0.122090831      0.303536803       6.13190234E-04
  0.456144422       1.82216074E-02  0.941372097      0.919860601      0.360261440      0.145162553      0.332080513       1.05034187E-03
  0.465438336       2.24102195E-02  0.928528845      0.902871847      0.402327508      0.157576695      0.370331168       1.64070725E-03
  0.474928796       2.61229333E-02  0.912563860      0.881765127      0.453275949      0.144586191      0.409067571       2.26650015E-03
  0.484786808       2.86871437E-02  0.899095058      0.864096403      0.494235158      0.102149241      0.435085475       2.84216553E-03
  0.494905144       2.98680626E-02  0.892643929      0.855961084      0.511626244       4.63458672E-02  0.443379432       3.46414745E-03
  0.505094886       2.98680626E-02  0.892034054      0.855779588      0.508420646      -8.02772958E-03  0.438755959       4.20896709E-03
  0.515213192       2.86871418E-02  0.893915951      0.859295726      0.489433736      -6.26939088E-02  0.425344676       5.35879284E-03
  0.525071204       2.61229314E-02  0.898281872      0.866569459      0.454170257     -0.114133418      0.402955443       6.96690008E-03
  0.534561634       2.24102195E-02  0.906755745      0.879368246      0.408519238     -0.145190746      0.372081488       8.48351419E-03
  0.543855608       1.82216056E-02  0.918402612      0.896110892      0.364270270     -0.146641761      0.335976660       9.47608054E-03
  0.553219557       1.41935805E-02  0.929536521      0.911844671      0.329626799     -0.127647191      0.301628828       1.00112669E-02
  0.562782109       1.06651178E-02  0.937512219      0.923054636      0.306523353     -0.103197083      0.275479585       1.02688409E-02
  0.572543144       7.73025956E-03  0.942348540      0.929830372      0.292842060      -8.13580900E-02  0.258594066       1.03789698E-02
  0.582456887       5.36030112E-03  0.945080280      0.933644831      0.285492122      -6.37781247E-02  0.248741850       1.04203764E-02
  0.592476368       3.48527008E-03  0.946576595      0.935714960      0.282112360      -4.98522148E-02  0.243523717       1.04203373E-02