 title = "grid"
                                   variables = "x","y","rho","P","u","v","M","S"
 zone n=        3000  e =        5742  et=quadrilateral, f=fepoint
   0.00000000       0.00000000      0.952908933      0.934699357      0.365577161      -2.99121137E-04  0.311964303      -6.89178705E-08
   1.00000000       0.00000000      0.944602251      0.932370961      0.317083150       5.92495548E-04  0.269736707       9.76333208E-03
   1.00000000      0.300000012      0.951387882      0.932624638      0.361585140       3.95579991E-05  0.308654010       1.43088400E-05
   0.00000000      0.300000012      0.954243898      0.936533093      0.360269129       3.98775910E-06  0.307348549      -6.51925802E-08
   1.00000000       1.03448275E-02  0.946095705      0.932424307      0.323712379       8.90457421E-04  0.275586337       7.60888867E-03
   1.00000000       2.06896551E-02  0.947809935      0.932464659      0.331861168       1.15757459E-03  0.282774031       5.11779636E-03
   1.00000000       3.10344826E-02  0.948951483      0.932493985      0.338117719       1.31865882E-03  0.288274467       3.46409343E-03
   1.00000000       4.13793102E-02  0.949724972      0.932515919      0.343208879       1.40823913E-03  0.292731166       2.34690309E-03
   1.00000000       5.17241396E-02  0.950252116      0.932533026      0.347386926       1.44788646E-03  0.296374291       1.58842094E-03
   1.00000000       6.20689653E-02  0.950610161      0.932546675      0.350791842       1.45199196E-03  0.299333364       1.07559934E-03
   1.00000000       7.24137947E-02  0.950852394      0.932558119      0.353525579       1.43028772E-03  0.301702559       7.31246546E-04
   1.00000000       8.27586204E-02  0.951016247      0.932567835      0.355685472       1.38988253E-03  0.303570241       5.00399619E-04
   1.00000000       9.31034461E-02  0.951127350      0.932576478      0.357362300       1.33611099E-03  0.305017561       3.46146524E-04
   1.00000000      0.103448279      0.951202810      0.932584107      0.358640939       1.27286871E-03  0.306119621       2.43213028E-04
   1.00000000      0.113793105      0.951255023      0.932591081      0.359597772       1.20317552E-03  0.306943387       1.73831359E-04
   1.00000000      0.124137931      0.951291382      0.932597578      0.360299379       1.12939882E-03  0.307546824       1.27293169E-04
   1.00000000      0.134482756      0.951317608      0.932603657      0.360802948       1.05309475E-03  0.307979703       9.52333212E-05
   1.00000000      0.144827589      0.951337039      0.932609200      0.361155838       9.75859934E-04  0.308283001       7.26003200E-05
   1.00000000      0.155172408      0.951351166      0.932614625      0.361396700       8.98558239E-04  0.308489799       5.75874001E-05
   1.00000000      0.165517241      0.951362550      0.932619691      0.361555189       8.22075992E-04  0.308625966       4.63090837E-05
   1.00000000      0.175862074      0.951371610      0.932624578      0.361654103       7.46989972E-04  0.308710903       3.81655991E-05
   1.00000000      0.186206892      0.951378882      0.932628930      0.361710876       6.73603907E-04  0.308759689       3.22144479E-05
   1.00000000      0.196551725      0.951385081      0.932633162      0.361737698       6.02150103E-04  0.308782786       2.75895000E-05
   1.00000000      0.206896558      0.951390743      0.932636976      0.361743838       5.32698934E-04  0.308788240       2.33165920E-05
   1.00000000      0.217241377      0.951394975      0.932640374      0.361736298       4.65405523E-04  0.308781832       2.07535923E-05
   1.00000000      0.227586210      0.951398194      0.932643354      0.361719728       4.00345627E-04  0.308767676       1.92187726E-05
   1.00000000      0.237931028      0.951401293      0.932645857      0.361697614       3.37437232E-04  0.308748811       1.73784792E-05
   1.00000000      0.248275861      0.951403677      0.932647824      0.361672759       2.76724051E-04  0.308727622       1.59386545E-05
   1.00000000      0.258620679      0.951405525      0.932649255      0.361646831       2.18371875E-04  0.308705509       1.47297978E-05
   1.00000000      0.268965513      0.951406479      0.932650030      0.361621231       1.62578071E-04  0.308683634       1.42287463E-05
   1.00000000      0.279310346      0.951406538      0.932650149      0.361597329       1.10038804E-04  0.308663219       1.42622739E-05
   1.00000000      0.289655179      0.951405525      0.932648778      0.361577988       6.21065992E-05  0.308646768       1.42548233E-05
  0.989898980      0.300000012      0.951464355      0.932729483      0.361539900       4.80517083E-05  0.308610469       1.42026693E-05
  0.979797959      0.300000012      0.951638222      0.932967901      0.361448795       5.12208935E-05  0.308521450       1.40294433E-05
  0.969696999      0.300000012      0.951801360      0.933191895      0.361369252       5.32767081E-05  0.308442980       1.40964985E-05
  0.959595978      0.300000012      0.951952636      0.933399320      0.361304253       5.45977418E-05  0.308377713       1.37966126E-05
  0.949494958      0.300000012      0.952090442      0.933588326      0.361256242       5.53857826E-05  0.308327854       1.36513263E-05
  0.939393938      0.300000012      0.952213824      0.933757424      0.361227095       5.57739040E-05  0.308295012       1.33719295E-05
  0.929292917      0.300000012      0.952321589      0.933905065      0.361218512       5.56703781E-05  0.308280796       1.30161643E-05
  0.919191897      0.300000012      0.952412605      0.934029996      0.361232072       5.52682759E-05  0.308286458       1.29453838E-05
  0.909090936      0.300000012      0.952486455      0.934130967      0.361268878       5.45016010E-05  0.308313161       1.25076622E-05
  0.898989916      0.300000012      0.952542067      0.934207261      0.361330271       5.32996819E-05  0.308361948       1.24257058E-05
  0.888888896      0.300000012      0.952579021      0.934257805      0.361417085       5.17766784E-05  0.308433682       1.22301280E-05
  0.878787875      0.300000012      0.952596962      0.934282601      0.361530513       4.98126465E-05  0.308529288       1.24163926E-05
  0.868686855      0.300000012      0.952595890      0.934280992      0.361671090       4.74596090E-05  0.308649361       1.22562051E-05
  0.858585835      0.300000012      0.952575266      0.934252679      0.361839741       4.45609367E-05  0.308794588       1.22953206E-05
  0.848484874      0.300000012      0.952535450      0.934197962      0.362037092       4.11837609E-05  0.308965623       1.22413039E-05
  0.838383853      0.300000012      0.952476323      0.934116960      0.362263709       3.72253780E-05  0.309162825       1.23791397E-05
  0.828282833      0.300000012      0.952398300      0.934009969      0.362520397       3.26237023E-05  0.309386939       1.25896186E-05
  0.818181813      0.300000012      0.952301800      0.933877230      0.362807661       2.73860933E-05  0.309638411       1.22599304E-05
  0.808080792      0.300000012      0.952187061      0.933719456      0.363126069       2.14942611E-05  0.309917688       1.20215118E-05
  0.797979772      0.300000012      0.952054203      0.933537424      0.363476127       1.49215748E-05  0.310225070       1.24033540E-05
  0.787878811      0.300000012      0.951903999      0.933331311      0.363858700       7.59024488E-06  0.310561329       1.24704093E-05
  0.777777791      0.300000012      0.951736987      0.933102190      0.364273995      -4.11286777E-07  0.310926735       1.26324594E-05
  0.767676771      0.300000012      0.951553524      0.932850301      0.364722490      -9.11861662E-06  0.311321527       1.25300139E-05
  0.757575750      0.300000012      0.951354027      0.932576418      0.365204751      -1.84504788E-05  0.311746269       1.24331564E-05
  0.747474730      0.300000012      0.951138914      0.932281077      0.365721136      -2.83856443E-05  0.312201202       1.22841448E-05
  0.737373710      0.300000012      0.950908661      0.931965113      0.366271585      -3.88521366E-05  0.312686235       1.22450292E-05
  0.727272749      0.300000012      0.950663745      0.931629002      0.366856128      -4.96956563E-05  0.313201427       1.22077763E-05
  0.717171729      0.300000012      0.950404823      0.931273758      0.367474347      -6.08200535E-05  0.313746303       1.21612102E-05
  0.707070708      0.300000012      0.950132668      0.930900037      0.368125767      -7.20994431E-05  0.314320564       1.17532909E-05
  0.696969688      0.300000012      0.949847639      0.930508912      0.368809164      -8.33306622E-05  0.314923018       1.15428120E-05
  0.686868668      0.300000012      0.949550867      0.930101931      0.369522870      -9.42370389E-05  0.315552175       1.15614384E-05
  0.676767647      0.300000012      0.949243844      0.929680645      0.370264798      -1.04490122E-04  0.316206247       1.12261623E-05
  0.666666687      0.300000012      0.948927641      0.929246962      0.371031731      -1.13749637E-04  0.316882312       1.10864639E-05
  0.656565666      0.300000012      0.948604107      0.928803086      0.371819526      -1.21722202E-04  0.317576855       1.07120723E-05
  0.646464646      0.300000012      0.948275328      0.928352296      0.372623026      -1.27860432E-04  0.318285257       1.05705112E-05
  0.636363626      0.300000012      0.947943866      0.927897751      0.373435736      -1.31669498E-04  0.319001794       1.02389604E-05
  0.626262605      0.300000012      0.947612703      0.927443802      0.374249756      -1.32518588E-04  0.319719553       1.00582838E-05
  0.616161644      0.300000012      0.947285354      0.926994920      0.375055343      -1.29809690E-04  0.320429951       9.63546336E-06
  0.606060624      0.300000012      0.946965218      0.926556230      0.375841528      -1.22936326E-04  0.321123362       9.57213342E-06
  0.595959604      0.300000012      0.946656644      0.926133394      0.376595676      -1.11388261E-04  0.321788728       9.38028097E-06
  0.585858583      0.300000012      0.946363926      0.925732195      0.377304316      -9.50138929E-05  0.322414190       9.02265310E-06
  0.575757563      0.300000012      0.946091175      0.925358415      0.377953529      -7.38350427E-05  0.322987646       8.72835517E-06
  0.565656543      0.300000012      0.945842266      0.925017595      0.378529519      -4.82808173E-05  0.323496878       8.73208046E-06
  0.555555582      0.300000012      0.945620954      0.924714208      0.379019886      -1.91394247E-05  0.323931187       8.28132033E-06
  0.545454562      0.300000012      0.945430100      0.924452543      0.379414171       1.24836770E-05  0.324281335       7.90134072E-06
  0.535353541      0.300000012      0.945271492      0.924234986      0.379704475       4.52715030E-05  0.324540406       7.40215182E-06
  0.525252521      0.300000012      0.945146143      0.924063444      0.379886746       7.79126640E-05  0.324704796       7.48410821E-06
  0.515151501      0.300000012      0.945055246      0.923938811      0.379959464       1.09848494E-04  0.324773252       7.23823905E-06
  0.505050480      0.300000012      0.944999516      0.923862398      0.379922986       1.40987933E-04  0.324745923       7.03334808E-06
  0.494949490      0.300000012      0.944979370      0.923834562      0.379779160       1.71347623E-04  0.324624449       6.79492950E-06
  0.484848499      0.300000012      0.944994152      0.923854589      0.379531682       2.00648472E-04  0.324411958       6.57141209E-06
  0.474747479      0.300000012      0.945042908      0.923921049      0.379186481       2.28597419E-04  0.324113578       6.30691648E-06
  0.464646459      0.300000012      0.945124328      0.924032331      0.378749758       2.55766790E-04  0.323734790       6.10202551E-06
  0.454545468      0.300000012      0.945237219      0.924186826      0.378227651       2.82277470E-04  0.323280782       6.05359674E-06
  0.444444448      0.300000012      0.945379078      0.924380839      0.377627075       3.06823698E-04  0.322757810       5.90085983E-06
  0.434343427      0.300000012      0.945546865      0.924610376      0.376957625       3.27641203E-04  0.322174251       5.74812293E-06
  0.424242437      0.300000012      0.945736885      0.924870253      0.376231134       3.43333028E-04  0.321540505       5.38304448E-06
  0.414141417      0.300000012      0.945945680      0.925155699      0.375461012       3.53277370E-04  0.320868224       4.98816371E-06
  0.404040396      0.300000012      0.946169317      0.925461531      0.374660790       3.57433048E-04  0.320169300       4.50946391E-06
  0.393939406      0.300000012      0.946404517      0.925783396      0.373843431       3.56223201E-04  0.319454968       4.30271029E-06
  0.383838385      0.300000012      0.946648538      0.926117182      0.373020440       3.50176939E-04  0.318735331       3.84263694E-06
  0.373737365      0.300000012      0.946898758      0.926459610      0.372202218       3.39922291E-04  0.318019420       3.52598727E-06
  0.363636374      0.300000012      0.947153151      0.926807821      0.371397585       3.26146896E-04  0.317314893       3.22796404E-06
  0.353535354      0.300000012      0.947409630      0.927158892      0.370613813       3.09653842E-04  0.316628188       2.92621553E-06
  0.343434334      0.300000012      0.947666824      0.927511036      0.369856685       2.91259203E-04  0.315964222       2.63564289E-06
  0.333333343      0.300000012      0.947923839      0.927862883      0.369130254       2.71552184E-04  0.315326542       2.25380063E-06
  0.323232323      0.300000012      0.948179424      0.928212941      0.368437618       2.50999117E-04  0.314717948       1.99861825E-06
  0.313131303      0.300000012      0.948432922      0.928560197      0.367780983       2.29977988E-04  0.314140260       1.80304050E-06
  0.303030312      0.300000012      0.948683739      0.928903699      0.367161691       2.08927988E-04  0.313594759       1.47335231E-06
  0.292929292      0.300000012      0.948931217      0.929243028      0.366580099       1.88227103E-04  0.313081652       1.52923167E-06
  0.282828271      0.300000012      0.949175358      0.929577589      0.366036117       1.67996157E-04  0.312601000       1.37649477E-06
  0.272727281      0.300000012      0.949415684      0.929907262      0.365529299       1.48480380E-04  0.312152326       1.57393515E-06
  0.262626261      0.300000012      0.949652016      0.930231392      0.365058869       1.29770095E-04  0.311735064       1.63540244E-06
  0.252525240      0.300000012      0.949884593      0.930550039      0.364623696       1.11990681E-04  0.311348289       1.27591193E-06
  0.242424250      0.300000012      0.950112820      0.930862963      0.364222527       9.53029303E-05  0.310990810       1.19395554E-06
  0.232323229      0.300000012      0.950336754      0.931169808      0.363853782       7.96948880E-05  0.310661316       7.78585672E-07
  0.222222224      0.300000012      0.950556338      0.931471109      0.363515913       6.51896407E-05  0.310358524       8.99657607E-07
  0.212121218      0.300000012      0.950771749      0.931766570      0.363207161       5.19051500E-05  0.310080856       8.30739737E-07
  0.202020198      0.300000012      0.950983047      0.932056487      0.362925529       3.98810953E-05  0.309826642       7.86036253E-07
  0.191919193      0.300000012      0.951189995      0.932340264      0.362668961       2.91455945E-05  0.309594154       5.94183803E-07
  0.181818187      0.300000012      0.951392710      0.932618558      0.362435311       1.98299749E-05  0.309381515       7.41332769E-07
  0.171717167      0.300000012      0.951591492      0.932891309      0.362222254       1.18781181E-05  0.309186757       6.48200512E-07
  0.161616161      0.300000012      0.951786339      0.933158636      0.362027287       5.29962517E-06  0.309007674       5.23403287E-07
  0.151515156      0.300000012      0.951977193      0.933420599      0.361848176       5.61124871E-08  0.308842421       5.06639481E-07
  0.141414136      0.300000012      0.952163756      0.933677137      0.361682773      -3.93159007E-06  0.308689058       9.62987542E-07
  0.131313130      0.300000012      0.952346623      0.933928072      0.361529052      -6.76586478E-06  0.308546066       8.62404704E-07
  0.121212125      0.300000012      0.952525556      0.934173405      0.361385405      -8.54866266E-06  0.308411926       4.63798642E-07
  0.111111112      0.300000012      0.952700198      0.934413075      0.361250579      -9.51519451E-06  0.308285564       3.76254320E-07
  0.101010099      0.300000012      0.952870429      0.934646845      0.361123621      -9.78824301E-06  0.308166236       3.66941094E-07
   9.09090936E-02  0.300000012      0.953036129      0.934874475      0.361004084      -9.50467711E-06  0.308053464       4.54485416E-07
   8.08080807E-02  0.300000012      0.953197241      0.935095370      0.360891789      -8.84981819E-06  0.307947308       3.16649675E-08
   7.07070678E-02  0.300000012      0.953352988      0.935309172      0.360786796      -7.84085023E-06  0.307847679      -6.14672899E-08
   6.06060624E-02  0.300000012      0.953503311      0.935515642      0.360689282      -6.62869707E-06  0.307754785      -6.70552254E-08
   5.05050495E-02  0.300000012      0.953647792      0.935714304      0.360599279      -5.12886754E-06  0.307668597       1.35973096E-07
   4.04040404E-02  0.300000012      0.953786373      0.935904622      0.360516727      -3.24186090E-06  0.307589263       8.75443220E-08
   3.03030312E-02  0.300000012      0.953918695      0.936086297      0.360441506      -9.33530771E-07  0.307516575      -8.19563866E-08
   2.02020202E-02  0.300000012      0.954044342      0.936258912      0.360372692       1.86850718E-06  0.307449758      -2.79396772E-08
   1.01010101E-02  0.300000012      0.954163015      0.936421812      0.360310018       4.84165366E-06  0.307388663      -2.32830644E-07
   0.00000000      0.289655179      0.954250038      0.936541617      0.360266268      -1.13934166E-05  0.307345718       3.53902578E-08
   0.00000000      0.279310346      0.954247653      0.936538279      0.360276669      -2.65546587E-05  0.307354748       1.86264515E-08
   0.00000000      0.268965513      0.954240799      0.936528981      0.360304624      -4.00297977E-05  0.307378978       7.63684511E-08
   0.00000000      0.258620679      0.954230368      0.936514497      0.360348314      -5.25187752E-05  0.307416975      -2.79396772E-08
   0.00000000      0.248275861      0.954216242      0.936495066      0.360406488      -6.43310195E-05  0.307467520      -5.96046448E-08
   0.00000000      0.237931028      0.954198539      0.936470747      0.360478729      -7.58159586E-05  0.307530314      -4.84287739E-08
   0.00000000      0.227586210      0.954177678      0.936442137      0.360564321      -8.67745184E-05  0.307604671       1.49011612E-08
   0.00000000      0.217241377      0.954153597      0.936409116      0.360662848      -9.74610812E-05  0.307690293       8.94069672E-08
   0.00000000      0.206896558      0.954126537      0.936371922      0.360773712      -1.07718777E-04  0.307786554       7.82310963E-08
   0.00000000      0.196551725      0.954096496      0.936330438      0.360896736      -1.17715863E-04  0.307893515      -2.27242708E-07
   0.00000000      0.186206892      0.954063416      0.936284840      0.361031532      -1.27594423E-04  0.308010668      -3.03611159E-07
   0.00000000      0.175862074      0.954027236      0.936235487      0.361177742      -1.37259180E-04  0.308137685       3.53902578E-08
   0.00000000      0.165517241      0.953988254      0.936181843      0.361335158      -1.46806953E-04  0.308274537      -9.12696123E-08
   0.00000000      0.155172408      0.953946352      0.936124384      0.361503780      -1.56485141E-04  0.308421105       5.40167093E-08
   0.00000000      0.144827589      0.953901768      0.936063051      0.361683398      -1.66356011E-04  0.308577240      -1.30385160E-08
   0.00000000      0.134482756      0.953854084      0.935997546      0.361874133      -1.76710455E-04  0.308743060       1.86264515E-09
   0.00000000      0.124137931      0.953803122      0.935927808      0.362076342      -1.87616242E-04  0.308918864       2.96160579E-07
   0.00000000      0.113793105      0.953749359      0.935853720      0.362290591      -1.99316055E-04  0.309105158      -1.30385160E-08
   0.00000000      0.103448279      0.953692019      0.935775042      0.362517625      -2.12110332E-04  0.309302568       1.11758709E-07
   0.00000000       9.31034461E-02  0.953630984      0.935691118      0.362758487      -2.26351272E-04  0.309512049       1.11758709E-08
   0.00000000       8.27586204E-02  0.953565836      0.935601771      0.363014668      -2.42288734E-04  0.309734851       1.89989805E-07
   0.00000000       7.24137947E-02  0.953496158      0.935505986      0.363287866      -2.60037312E-04  0.309972554       6.51925802E-08
   0.00000000       6.20689653E-02  0.953421354      0.935403287      0.363580316      -2.79926549E-04  0.310226917       1.76951289E-07
   0.00000000       5.17241396E-02  0.953340828      0.935292542      0.363894850      -3.01685359E-04  0.310500562      -9.31322575E-09
   0.00000000       4.13793102E-02  0.953253925      0.935173154      0.364234537      -3.24355933E-04  0.310796112      -6.51925802E-08
   0.00000000       3.10344826E-02  0.953159809      0.935044050      0.364603370      -3.44993576E-04  0.311116934       1.22934580E-07
   0.00000000       2.06896551E-02  0.953058183      0.934904397      0.365006030      -3.56667093E-04  0.311467201       7.07805157E-08
   0.00000000       1.03448275E-02  0.952949107      0.934754670      0.365448445      -3.42563464E-04  0.311851859       7.82310963E-08
   1.01942774E-02  -1.06002917E-05  0.952882469      0.934663117      0.365618736      -5.45027899E-04  0.312001765       3.91155481E-08
   2.03885511E-02  -4.05888240E-05  0.952826917      0.934586823      0.365584105      -1.15154847E-03  0.311977029       2.42143869E-08
   3.05827484E-02  -8.74972393E-05  0.952829063      0.934589982      0.365400732      -1.71138823E-03  0.311822265       2.88709998E-07
   4.07768898E-02  -1.49138228E-04  0.952871561      0.934648454      0.365113169      -2.20680516E-03  0.311576307       4.47034836E-07
   5.09709269E-02  -2.23550553E-04  0.952946663      0.934751630      0.364746213      -2.63894768E-03  0.311260700       4.45172191E-07
   6.11648858E-02  -3.08956922E-04  0.953049600      0.934893191      0.364315242      -3.01147974E-03  0.310888708       6.96629286E-07
   7.13587478E-02  -4.03728453E-04  0.953177154      0.935068667      0.363830417      -3.32794781E-03  0.310468972       9.92789865E-07
   8.15525427E-02  -5.06357115E-04  0.953327596      0.935275376      0.363298923      -3.59191559E-03  0.310007811       1.04121864E-06
   9.17462707E-02  -6.15430705E-04  0.953499258      0.935511410      0.362725437      -3.80596542E-03  0.309509188       1.32061541E-06
  0.101939946      -7.29613879E-04  0.953691185      0.935775220      0.362113386      -3.97257786E-03  0.308976024       1.56275928E-06
  0.112133577      -8.47629446E-04  0.953902781      0.936065912      0.361464918      -4.09341091E-03  0.308410257       1.57020986E-06
  0.122327171      -9.68243345E-04  0.954133511      0.936382890      0.360781163      -4.16982826E-03  0.307812810       1.51433051E-06
  0.132520750      -1.09024998E-03  0.954382479      0.936725259      0.360062540      -4.20257496E-03  0.307184011       1.78813934E-06
  0.142714337      -1.21245917E-03  0.954650104      0.937093079      0.359308571      -4.19200864E-03  0.306523532       1.85705721E-06
  0.152907923      -1.33368257E-03  0.954935730      0.937485814      0.358518213      -4.13819868E-03  0.305830538       2.05449760E-06
  0.163101539      -1.45272142E-03  0.955239534      0.937903523      0.357689679      -4.04069666E-03  0.305103511       2.18302011E-06
  0.173295200      -1.56835280E-03  0.955561459      0.938346446      0.356820792      -3.89851234E-03  0.304340512       2.58721411E-06
  0.183488905      -1.67931605E-03  0.955901623      0.938814104      0.355908513      -3.71030928E-03  0.303539187       2.62632966E-06
  0.193682685      -1.78429752E-03  0.956259906      0.939307034      0.354949951      -3.47436476E-03  0.302696973       2.84798443E-06
  0.203876525      -1.88191328E-03  0.956636369      0.939824998      0.353941083      -3.18813114E-03  0.301810622       3.10875475E-06
  0.214070454      -1.97069068E-03  0.957031071      0.940368295      0.352877855      -2.84871110E-03  0.300876707       3.46638262E-06
  0.224264458      -2.04904471E-03  0.957444370      0.940937102      0.351755410      -2.45229620E-03  0.299891263       3.77558172E-06
  0.234458551      -2.11525219E-03  0.957876265      0.941531599      0.350568354      -1.99427921E-03  0.298849821       3.96929681E-06
  0.244652733      -2.16741930E-03  0.958326876      0.942152143      0.349310488      -1.46894390E-03  0.297747284       4.42750752E-06
  0.254846990      -2.20344099E-03  0.958796680      0.942799389      0.347974569      -8.69240612E-04  0.296577662       4.96022403E-06
  0.265041292      -2.22095218E-03  0.959286213      0.943473935      0.346551895      -1.86429141E-04  0.295334011       5.59352338E-06
  0.275235593      -2.21726228E-03  0.959796429      0.944176972      0.345031887       5.90433192E-04  0.294007719       6.01075590E-06
  0.285429865      -2.18927371E-03  0.960328341      0.944910169      0.343401819       1.47481682E-03  0.292588443       6.62542880E-06
  0.295624018      -2.13337177E-03  0.960883617      0.945675969      0.341645539       2.48407642E-03  0.291063309       7.43940473E-06
  0.305817962      -2.04527588E-03  0.961464643      0.946477473      0.339743018       3.64022120E-03  0.289416313       8.35396349E-06
  0.316011488      -1.91983546E-03  0.962074280      0.947319090      0.337668717       4.97236336E-03  0.287627250       9.73977149E-06
  0.326204360      -1.75073801E-03  0.962717235      0.948207319      0.335389793       6.51897443E-03  0.285670608       1.16825104E-05
  0.336396307      -1.53008103E-03  0.963399947      0.949150681      0.332863659       8.33259895E-03  0.283513755       1.35935843E-05
  0.346586645      -1.24772848E-03  0.964130580      0.950161219      0.330034286       1.04874754E-02  0.281114638       1.63763762E-05
  0.356774658      -8.90274358E-04  0.964920223      0.951254308      0.326827586       1.30920922E-02  0.278419882       1.99805945E-05
  0.366958946      -4.39326104E-04  0.965784729      0.952452719      0.323144644       1.63333155E-02  0.275362939       2.52500176E-05
  0.377137065       1.33766516E-04  0.966762364      0.953810990      0.318899274       2.10521594E-02  0.271933377       3.38684767E-05
  0.387299746       9.32033930E-04  0.967723072      0.955149949      0.314750820       2.81749573E-02  0.268828750       4.60743904E-05
  0.397434235       2.03104783E-03  0.968399704      0.956101358      0.311441422       3.72811146E-02  0.266794711       6.31473958E-05
  0.407523632       3.48527054E-03  0.968688011      0.956524491      0.309273332       4.82529774E-02  0.266222626       8.89115036E-05
  0.417543113       5.36030158E-03  0.968471587      0.956266046      0.308677107       6.15637228E-02  0.267710090       1.31506473E-04
  0.427456856       7.73026003E-03  0.967477381      0.954965234      0.310609996       7.78736547E-02  0.272405148       2.08148733E-04
  0.437217921       1.06651187E-02  0.965191424      0.951944888      0.316893041       9.77809578E-02  0.282226771       3.52211297E-04
  0.446780443       1.41935814E-02  0.960690975      0.945986867      0.330740660      0.120973334      0.299942523       6.16895035E-04
  0.456144422       1.82216074E-02  0.952573359      0.935219705      0.356878579      0.143864229      0.328205734       1.04958378E-03
  0.465438336       2.24102195E-02  0.939688981      0.918092549      0.398576617      0.156185985      0.366029054       1.63177401E-03
  0.474928796       2.61229333E-02  0.923699677      0.896848321      0.449012756      0.143320590      0.404266953       2.24705786E-03
  0.484786808       2.86871437E-02  0.910161912      0.878997445      0.489513218      0.101297013      0.429903477       2.81254947E-03
  0.494905144       2.98680626E-02  0.903536141      0.870583415      0.506692946       4.60701808E-02  0.438062578       3.42315435E-03
  0.505094886       2.98680626E-02  0.902664959      0.870045066      0.503512800      -7.73045421E-03  0.433500946       4.15505469E-03
  0.515213192       2.86871418E-02  0.904245377      0.873165488      0.484711081      -6.18300699E-02  0.420260668       5.28614223E-03
  0.525071204       2.61229314E-02  0.908268273      0.879999876      0.449812502     -0.112738848      0.398164660       6.86817244E-03
  0.534561634       2.24102195E-02  0.916355312      0.892318666      0.404654354     -0.143448204      0.367702991       8.35958496E-03
  0.543855608       1.82216056E-02  0.927594185      0.908560395      0.360893011     -0.144836530      0.332081527       9.33144055E-03
  0.553219557       1.41935805E-02  0.938326597      0.923795164      0.326648384     -0.126008675      0.298215538       9.85517539E-03
  0.562782109       1.06651178E-02  0.945921481      0.934526503      0.303846627     -0.101812214      0.272476226       1.01186726E-02
  0.572543144       7.73025956E-03  0.950389385      0.940841794      0.290413231      -8.02209675E-02  0.255924672       1.02565801E-02
  0.582456887       5.36030112E-03  0.952750862      0.944199502      0.283311337      -6.28551319E-02  0.246371984       1.03447633E-02
  0.592476368       3.48527008E-03  0.953861058      0.945796430      0.280220181      -4.91091348E-02  0.241461590       1.04042087E-02