 title = "grid"
                                   variables = "x","y","rho","P","u","v","M","S"
 zone n=        3000  e =        5742  et=quadrilateral, f=fepoint
   0.00000000       0.00000000      0.953490794      0.935498476      0.363409758      -3.19103536E-04  0.310076922      -4.09781933E-08
   1.00000000       0.00000000      0.944672644      0.932451069      0.319591969       5.71311160E-04  0.271869302       9.74494033E-03
   1.00000000      0.300000012      0.951326191      0.932538569      0.366855979       1.27674448E-05  0.313157558       1.28317624E-05
   0.00000000      0.300000012      0.953444123      0.935434401      0.363688797       6.12309623E-06  0.310317934      -2.79396772E-08
   1.00000000       1.03448275E-02  0.946170032      0.932498872      0.326239139       8.11737089E-04  0.277737051       7.57885352E-03
   1.00000000       2.06896551E-02  0.947884858      0.932537377      0.334419399       1.01052935E-03  0.284953564       5.08507527E-03
   1.00000000       3.10344826E-02  0.949018061      0.932563722      0.340726346       1.10886712E-03  0.290497184       3.44063528E-03
   1.00000000       4.13793102E-02  0.949781597      0.932581365      0.345882684       1.14128995E-03  0.295009285       2.33361684E-03
   1.00000000       5.17241396E-02  0.950299561      0.932593107      0.350138992       1.12953654E-03  0.298719019       1.58297457E-03
   1.00000000       6.20689653E-02  0.950650215      0.932600439      0.353633106       1.08820072E-03  0.301754355       1.07431412E-03
   1.00000000       7.24137947E-02  0.950886011      0.932604432      0.356464297       1.02703308E-03  0.304207087       7.31376931E-04
   1.00000000       8.27586204E-02  0.951043785      0.932606161      0.358730525       9.53274604E-04  0.306166023       5.00980765E-04
   1.00000000       9.31034461E-02  0.951148510      0.932605982      0.360522836       8.72375676E-04  0.307712495       3.46599147E-04
   1.00000000      0.103448279      0.951217651      0.932604373      0.361924171       7.88382604E-04  0.308919877       2.43114308E-04
   1.00000000      0.113793105      0.951262951      0.932601511      0.363009840       7.04153092E-04  0.309854209       1.73358247E-04
   1.00000000      0.124137931      0.951292038      0.932597935      0.363845468       6.22033549E-04  0.310572714       1.26715750E-04
   1.00000000      0.134482756      0.951310694      0.932593644      0.364486694       5.43779111E-04  0.311123729       9.46782529E-05
   1.00000000      0.144827589      0.951322615      0.932589114      0.364980012       4.70638508E-04  0.311547399       7.22762197E-05
   1.00000000      0.155172408      0.951329529      0.932584047      0.365362585       4.03355487E-04  0.311875880       5.66598028E-05
   1.00000000      0.165517241      0.951333702      0.932579100      0.365662724       3.42553947E-04  0.312133551       4.52473760E-05
   1.00000000      0.175862074      0.951335430      0.932574034      0.365901381       2.88434443E-04  0.312338382       3.72882932E-05
   1.00000000      0.186206892      0.951336205      0.932569146      0.366094142       2.40903988E-04  0.312503815       3.08714807E-05
   1.00000000      0.196551725      0.951335907      0.932564497      0.366251826       1.99836257E-04  0.312639117       2.63135880E-05
   1.00000000      0.206896558      0.951335132      0.932560027      0.366382748       1.64956567E-04  0.312751502       2.26981938E-05
   1.00000000      0.217241377      0.951333821      0.932555795      0.366492033       1.35842114E-04  0.312845260       2.00849026E-05
   1.00000000      0.227586210      0.951332808      0.932552159      0.366583467       1.11746158E-04  0.312923789       1.76429749E-05
   1.00000000      0.237931028      0.951331615      0.932549059      0.366659403       9.21156898E-05  0.312988907       1.60783529E-05
   1.00000000      0.248275861      0.951330721      0.932546675      0.366721213       7.60132461E-05  0.313041925       1.48043036E-05
   1.00000000      0.258620679      0.951329887      0.932544768      0.366769910       6.23801388E-05  0.313083649       1.40033662E-05
   1.00000000      0.268965513      0.951329648      0.932543814      0.366806328       5.01903669E-05  0.313114852       1.33924186E-05
   1.00000000      0.279310346      0.951329410      0.932543397      0.366830707       3.78243894E-05  0.313135713       1.32303685E-05
   1.00000000      0.289655179      0.951330364      0.932544351      0.366844147       2.30768728E-05  0.313147187       1.29081309E-05
  0.989898980      0.300000012      0.951349437      0.932570398      0.366830885       1.62906545E-05  0.313134640       1.27144158E-05
  0.979797959      0.300000012      0.951407909      0.932650626      0.366778493       1.18205153E-05  0.313086063       1.26957893E-05
  0.969696999      0.300000012      0.951473534      0.932740629      0.366722137       7.63468597E-06  0.313033640       1.26548111E-05
  0.959595978      0.300000012      0.951546848      0.932841063      0.366661340       3.40575343E-06  0.312976956       1.24908984E-05
  0.949494958      0.300000012      0.951627254      0.932951272      0.366596669      -1.03704849E-06  0.312916517       1.23046339E-05
  0.939393938      0.300000012      0.951714754      0.933071673      0.366529107      -5.83608789E-06  0.312853038       1.26082450E-05
  0.929292917      0.300000012      0.951809347      0.933201253      0.366459757      -1.10700066E-05  0.312787652       1.23847276E-05
  0.919191897      0.300000012      0.951910019      0.933339655      0.366390407      -1.67815961E-05  0.312721789       1.25560910E-05
  0.909090936      0.300000012      0.952016294      0.933485746      0.366322786      -2.29798698E-05  0.312657088       1.27609819E-05
  0.898989916      0.300000012      0.952127457      0.933638632      0.366258919      -2.98018349E-05  0.312595218       1.31204724E-05
  0.888888896      0.300000012      0.952242851      0.933797002      0.366200954      -3.72270370E-05  0.312538177       1.30124390E-05
  0.878787875      0.300000012      0.952361584      0.933959782      0.366151243      -4.54102083E-05  0.312487990       1.28112733E-05
  0.868686855      0.300000012      0.952482283      0.934125364      0.366112202      -5.42772359E-05  0.312446803       1.26939267E-05
  0.858585835      0.300000012      0.952603996      0.934292555      0.366086274      -6.38065394E-05  0.312416673       1.27498060E-05
  0.848484874      0.300000012      0.952725828      0.934459805      0.366076082      -7.40000105E-05  0.312399983       1.27032399E-05
  0.838383853      0.300000012      0.952846527      0.934625566      0.366084129      -8.49245698E-05  0.312398940       1.27088279E-05
  0.828282833      0.300000012      0.952965319      0.934788644      0.366113037      -9.65910076E-05  0.312415838       1.26808882E-05
  0.818181813      0.300000012      0.953080833      0.934947133      0.366165340      -1.08970584E-04  0.312452912       1.24946237E-05
  0.808080792      0.300000012      0.953192055      0.935099900      0.366243541      -1.21999889E-04  0.312512368       1.24704093E-05
  0.797979772      0.300000012      0.953298092      0.935245454      0.366350144      -1.35767812E-04  0.312596411       1.23921782E-05
  0.787878811      0.300000012      0.953397751      0.935381949      0.366487682      -1.50237713E-04  0.312707305       1.20270997E-05
  0.777777791      0.300000012      0.953489959      0.935508490      0.366658390      -1.65265810E-04  0.312846929       1.18389726E-05
  0.767676771      0.300000012      0.953573763      0.935623586      0.366864651      -1.80897623E-04  0.313017398       1.18725002E-05
  0.757575750      0.300000012      0.953648329      0.935725987      0.367108345      -1.97064772E-04  0.313220441       1.18091702E-05
  0.747474730      0.300000012      0.953713119      0.935814917      0.367391825      -2.13762236E-04  0.313458055       1.17253512E-05
  0.737373710      0.300000012      0.953767359      0.935889184      0.367716372      -2.30706180E-04  0.313731462       1.15297735E-05
  0.727272749      0.300000012      0.953810394      0.935948133      0.368083328      -2.47799588E-04  0.314041764       1.13397837E-05
  0.717171729      0.300000012      0.953841686      0.935991049      0.368493229      -2.64843955E-04  0.314389408       1.12000853E-05
  0.707070708      0.300000012      0.953861296      0.936017752      0.368946403      -2.81554385E-04  0.314774811       1.10138208E-05
  0.696969688      0.300000012      0.953869343      0.936028421      0.369441956      -2.97556602E-04  0.315197110       1.05351210E-05
  0.686868668      0.300000012      0.953865945      0.936023653      0.369978130      -3.12466553E-04  0.315654814       1.04438514E-05
  0.676767647      0.300000012      0.953851879      0.936003983      0.370552093      -3.25843343E-04  0.316145539       1.00918114E-05
  0.666666687      0.300000012      0.953827918      0.935971081      0.371159852      -3.37067642E-04  0.316665649       1.01234764E-05
  0.656565666      0.300000012      0.953795612      0.935926497      0.371795803      -3.45662120E-04  0.317210406       9.87201929E-06
  0.646464646      0.300000012      0.953756511      0.935872495      0.372453153      -3.51009629E-04  0.317773908       9.56840813E-06
  0.636363626      0.300000012      0.953712761      0.935812235      0.373123616      -3.52585543E-04  0.318348914       9.38400626E-06
  0.626262605      0.300000012      0.953666866      0.935748994      0.373797446      -3.49755661E-04  0.318926930       9.20146704E-06
  0.616161644      0.300000012      0.953621686      0.935686409      0.374463558      -3.42095504E-04  0.319498360       8.65943730E-06
  0.606060624      0.300000012      0.953580618      0.935629487      0.375110000      -3.28954658E-04  0.320052713       8.07456672E-06
  0.595959604      0.300000012      0.953546941      0.935582757      0.375723332      -3.09980038E-04  0.320578367       7.64057040E-06
  0.585858583      0.300000012      0.953524113      0.935551286      0.376290143      -2.85220623E-04  0.321063548       7.48783350E-06
  0.575757563      0.300000012      0.953515589      0.935539484      0.376796812      -2.54918414E-04  0.321496427       7.34813511E-06
  0.565656543      0.300000012      0.953524530      0.935551584      0.377230763      -2.19744819E-04  0.321866095       7.18981028E-06
  0.555555582      0.300000012      0.953553498      0.935591280      0.377581328      -1.80556832E-04  0.322163254       7.05569983E-06
  0.545454562      0.300000012      0.953604162      0.935660481      0.377839893      -1.38697767E-04  0.322380513       6.64405525E-06
  0.535353541      0.300000012      0.953676999      0.935760736      0.378000289      -9.53829513E-05  0.322512358       6.90668821E-06
  0.525252521      0.300000012      0.953772306      0.935891867      0.378059030      -5.20766080E-05  0.322555989       7.07246363E-06
  0.515151501      0.300000012      0.953889787      0.936053097      0.378015071      -9.52632126E-06  0.322510600       6.95884228E-06
  0.505050480      0.300000012      0.954028428      0.936243653      0.377868652       3.21791485E-05  0.322376251       7.00354576E-06
  0.494949490      0.300000012      0.954187214      0.936461568      0.377621442       7.32292028E-05  0.322154671       6.76512718E-06
  0.484848499      0.300000012      0.954364240      0.936704457      0.377276897       1.13461349E-04  0.321848869       6.33299351E-06
  0.474747479      0.300000012      0.954556942      0.936969101      0.376840591       1.52650551E-04  0.321463734       6.23986125E-06
  0.464646459      0.300000012      0.954762995      0.937252343      0.376318991       1.91486659E-04  0.321004897       6.30691648E-06
  0.454545468      0.300000012      0.954980075      0.937550664      0.375718355       2.30065052E-04  0.320478052       6.26035035E-06
  0.444444448      0.300000012      0.955205142      0.937860072      0.375046372       2.67048599E-04  0.319889754       6.26966357E-06
  0.434343427      0.300000012      0.955434561      0.938175261      0.374313772       3.00558866E-04  0.319249630       6.13927841E-06
  0.424242437      0.300000012      0.955663979      0.938490510      0.373533607       3.29156435E-04  0.318568945       5.93252480E-06
  0.414141417      0.300000012      0.955889285      0.938799977      0.372720063       3.52022849E-04  0.317860216       5.58793545E-06
  0.404040396      0.300000012      0.956106365      0.939098001      0.371887535       3.69021611E-04  0.317135930       5.13345003E-06
  0.393939406      0.300000012      0.956311226      0.939379275      0.371049702       3.80455225E-04  0.316408008       4.62308526E-06
  0.383838385      0.300000012      0.956500769      0.939639628      0.370219022       3.86680971E-04  0.315687150       4.29339707E-06
  0.373737365      0.300000012      0.956672192      0.939875066      0.369406134       3.88279208E-04  0.314982772       3.97115946E-06
  0.363636374      0.300000012      0.956823170      0.940082490      0.368620783       3.85829713E-04  0.314303249       3.69362533E-06
  0.353535354      0.300000012      0.956951916      0.940259397      0.367870808       3.79965117E-04  0.313655406       3.50922346E-06
  0.343434334      0.300000012      0.957057178      0.940404058      0.367162377       3.71421251E-04  0.313044488       3.37138772E-06
  0.333333343      0.300000012      0.957138360      0.940515637      0.366500288       3.60788370E-04  0.312474728       3.21865082E-06
  0.323232323      0.300000012      0.957195103      0.940593302      0.365887851       3.48449539E-04  0.311948925       2.79955566E-06
  0.313131303      0.300000012      0.957227409      0.940637350      0.365327537       3.34767916E-04  0.311469138       2.40653753E-06
  0.303030312      0.300000012      0.957235396      0.940647721      0.364820898       3.20076506E-04  0.311036766       1.73225999E-06
  0.292929292      0.300000012      0.957219362      0.940625429      0.364368320       3.04723857E-04  0.310651988       1.53481960E-06
  0.282828271      0.300000012      0.957180083      0.940571547      0.363969564       2.88931973E-04  0.310314536       1.68941915E-06
  0.272727281      0.300000012      0.957119048      0.940487444      0.363623559       2.72971374E-04  0.310023487       1.53295696E-06
  0.262626261      0.300000012      0.957037449      0.940374970      0.363328636       2.57045700E-04  0.309777349       1.30943954E-06
  0.252525240      0.300000012      0.956936538      0.940236151      0.363082528       2.41289541E-04  0.309574068       1.25356019E-06
  0.242424250      0.300000012      0.956817925      0.940073073      0.362882584       2.25886441E-04  0.309411198       1.33179128E-06
  0.232323229      0.300000012      0.956683874      0.939888537      0.362725586       2.10901228E-04  0.309286028       1.21071935E-06
  0.222222224      0.300000012      0.956535757      0.939684629      0.362608284       1.96448047E-04  0.309195608       1.02072954E-06
  0.212121218      0.300000012      0.956375897      0.939464509      0.362527162       1.82559670E-04  0.309136808       6.96629286E-07
  0.202020198      0.300000012      0.956206143      0.939230859      0.362478733       1.69156134E-04  0.309106499       4.58210707E-07
  0.191919193      0.300000012      0.956028521      0.938986421      0.362459451       1.56189912E-04  0.309101582       2.42143869E-07
  0.181818187      0.300000012      0.955845177      0.938734174      0.362465888       1.43780504E-04  0.309118956       1.49011612E-07
  0.171717167      0.300000012      0.955658138      0.938476801      0.362494797       1.31829787E-04  0.309155732      -1.22934580E-07
  0.161616161      0.300000012      0.955469370      0.938217223      0.362542897       1.20275596E-04  0.309208959      -1.93715096E-07
  0.151515156      0.300000012      0.955280781      0.937958181      0.362607151       1.09149958E-04  0.309275955       3.72529030E-08
  0.141414136      0.300000012      0.955094278      0.937702119      0.362684697       9.84146027E-05  0.309354126       3.76254320E-07
  0.131313130      0.300000012      0.954911888      0.937451482      0.362772584       8.81276501E-05  0.309440881       3.79979610E-07
  0.121212125      0.300000012      0.954735100      0.937208474      0.362867832       7.84267177E-05  0.309533566       3.79979610E-07
  0.111111112      0.300000012      0.954565287      0.936975241      0.362967789       6.92207541E-05  0.309629858       4.71249223E-07
  0.101010099      0.300000012      0.954404116      0.936753511      0.363069534       6.06837129E-05  0.309727132       2.64495611E-07
   9.09090936E-02  0.300000012      0.954252422      0.936545134      0.363170266       5.28206147E-05  0.309822947       3.18512321E-07
   8.08080807E-02  0.300000012      0.954111278      0.936351120      0.363267303       4.56611269E-05  0.309914887       2.06753612E-07
   7.07070678E-02  0.300000012      0.953981638      0.936173260      0.363358170       3.91976682E-05  0.310000807       5.14090061E-07
   6.06060624E-02  0.300000012      0.953864396      0.936012030      0.363440454       3.32743621E-05  0.310078621       2.77534127E-07
   5.05050495E-02  0.300000012      0.953759909      0.935868502      0.363512546       2.79468477E-05  0.310146958       3.03611159E-07
   4.04040404E-02  0.300000012      0.953668594      0.935742795      0.363572836       2.29592661E-05  0.310204357       3.16649675E-08
   3.03030312E-02  0.300000012      0.953590572      0.935635507      0.363620847       1.81433770E-05  0.310250431      -1.11758709E-07
   2.02020202E-02  0.300000012      0.953525841      0.935546637      0.363656104       1.33404255E-05  0.310284704      -5.02914190E-08
   1.01010101E-02  0.300000012      0.953474343      0.935475767      0.363679111       8.27624990E-06  0.310307711      -1.93715096E-07
   0.00000000      0.289655179      0.953442872      0.935432673      0.363684595       2.09935188E-05  0.310314417      -5.40167093E-08
   0.00000000      0.279310346      0.953448117      0.935439825      0.363664389       3.76674907E-05  0.310296834      -5.02914190E-08
   0.00000000      0.268965513      0.953458548      0.935454309      0.363623738       5.27229713E-05  0.310261458       4.84287739E-08
   0.00000000      0.258620679      0.953473866      0.935475409      0.363564283       6.65264743E-05  0.310209721       1.28522515E-07
   0.00000000      0.248275861      0.953493595      0.935502350      0.363487720       7.89629412E-05  0.310143143       3.72529030E-09
   0.00000000      0.237931028      0.953517437      0.935535192      0.363395363       8.98921062E-05  0.310062796       8.19563866E-08
   0.00000000      0.227586210      0.953544676      0.935572565      0.363289177       9.90249100E-05  0.309970438       5.58793545E-09
   0.00000000      0.217241377      0.953574836      0.935613930      0.363171220       1.06139218E-04  0.309867829      -7.26431608E-08
   0.00000000      0.206896558      0.953607380      0.935658693      0.363043636       1.11246824E-04  0.309756875       1.11758709E-08
   0.00000000      0.196551725      0.953641653      0.935705721      0.362908781       1.13981849E-04  0.309639573      -2.23517418E-08
   0.00000000      0.186206892      0.953676939      0.935754359      0.362769336       1.14149290E-04  0.309518248       1.89989805E-07
   0.00000000      0.175862074      0.953712642      0.935803354      0.362628460       1.11643654E-04  0.309395730       8.38190317E-08
   0.00000000      0.165517241      0.953747690      0.935851514      0.362489134       1.06188127E-04  0.309274614       8.00937414E-08
   0.00000000      0.155172408      0.953781426      0.935897768      0.362354815       9.76614319E-05  0.309157848       3.91155481E-08
   0.00000000      0.144827589      0.953813016      0.935941160      0.362228811       8.58614658E-05  0.309048265       3.35276127E-08
   0.00000000      0.134482756      0.953841269      0.935979962      0.362114996       7.06679275E-05  0.308949351       2.98023224E-08
   0.00000000      0.124137931      0.953865349      0.936012983      0.362017125       5.19248097E-05  0.308864295      -4.84287739E-08
   0.00000000      0.113793105      0.953884125      0.936038792      0.361939341       2.94838264E-05  0.308796734      -1.86264515E-08
   0.00000000      0.103448279      0.953896761      0.936056197      0.361885935       3.21055836E-06  0.308750302       2.42143869E-08
   0.00000000       9.31034461E-02  0.953902066      0.936063409      0.361861169      -2.71985537E-05  0.308728874      -8.00937414E-08
   0.00000000       8.27586204E-02  0.953898609      0.936058760      0.361869723      -6.16548859E-05  0.308736354       3.35276127E-08
   0.00000000       7.24137947E-02  0.953885555      0.936040819      0.361916244      -1.00159850E-04  0.308776915       4.84287739E-08
   0.00000000       6.20689653E-02  0.953861713      0.936008036      0.362005502      -1.42665798E-04  0.308854610      -5.77419996E-08
   0.00000000       5.17241396E-02  0.953825712      0.935958505      0.362142414      -1.88882419E-04  0.308973819      -6.51925802E-08
   0.00000000       4.13793102E-02  0.953776181      0.935890615      0.362332553      -2.37506654E-04  0.309139222       3.53902578E-08
   0.00000000       3.10344826E-02  0.953712285      0.935802996      0.362581223      -2.85536633E-04  0.309355527       2.36555934E-07
   0.00000000       2.06896551E-02  0.953633547      0.935694635      0.362894267      -3.26107431E-04  0.309627801       3.91155481E-08
   0.00000000       1.03448275E-02  0.953539371      0.935565233      0.363277733      -3.42863786E-04  0.309961140      -5.58793545E-09
   1.01942774E-02  -1.06002917E-05  0.953520954      0.935540020      0.363393217      -5.51660545E-04  0.310061038       5.77419996E-08
   2.03885511E-02  -4.05888240E-05  0.953588665      0.935633004      0.363250762      -1.14132708E-03  0.309936285       2.04890966E-08
   3.05827484E-02  -8.74972393E-05  0.953692377      0.935775518      0.362977922      -1.68216391E-03  0.309698552       7.45058060E-08
   4.07768898E-02  -1.49138228E-04  0.953815699      0.935945272      0.362616956      -2.15818756E-03  0.309384674       4.86150384E-07
   5.09709269E-02  -2.23550553E-04  0.953951120      0.936131418      0.362191349      -2.57091178E-03  0.309015065       5.36441803E-07
   6.11648858E-02  -3.08956922E-04  0.954094172      0.936328053      0.361715496      -2.92394520E-03  0.308602124       7.05942512E-07
   7.13587478E-02  -4.03728453E-04  0.954241574      0.936530709      0.361199141      -3.22119333E-03  0.308154255       7.84173608E-07
   8.15525427E-02  -5.06357115E-04  0.954390705      0.936735868      0.360649168      -3.46621661E-03  0.307677358       1.08405948E-06
   9.17462707E-02  -6.15430705E-04  0.954539716      0.936940908      0.360070348      -3.66176898E-03  0.307175577       1.35786831E-06
  0.101939946      -7.29613879E-04  0.954687417      0.937144041      0.359466106      -3.81043670E-03  0.306651950       1.52736902E-06
  0.112133577      -8.47629446E-04  0.954832256      0.937343180      0.358839303      -3.91397858E-03  0.306108952       1.62981451E-06
  0.122327171      -9.68243345E-04  0.954973221      0.937537253      0.358191997      -3.97408148E-03  0.305548340       1.95018947E-06
  0.132520750      -1.09024998E-03  0.955109835      0.937725008      0.357525438      -3.99156101E-03  0.304971278       2.00420618E-06
  0.142714337      -1.21245917E-03  0.955241382      0.937906086      0.356840372      -3.96716082E-03  0.304378331       2.28360295E-06
  0.152907923      -1.33368257E-03  0.955367565      0.938079894      0.356137186      -3.90088442E-03  0.303769857       2.61142850E-06
  0.163101539      -1.45272142E-03  0.955488503      0.938246548      0.355415612      -3.79253668E-03  0.303145736       3.02493572E-06
  0.173295200      -1.56835280E-03  0.955604732      0.938406527      0.354674667      -3.64135369E-03  0.302505076       3.23355198E-06
  0.183488905      -1.67931605E-03  0.955716789      0.938560724      0.353912324      -3.44605022E-03  0.301846176       3.36579978E-06
  0.193682685      -1.78429752E-03  0.955825150      0.938710153      0.353126615      -3.20478715E-03  0.301167279       3.83891165E-06
  0.203876525      -1.88191328E-03  0.955931664      0.938856840      0.352313966      -2.91514653E-03  0.300465375       4.12948430E-06
  0.214070454      -1.97069068E-03  0.956037760      0.939002812      0.351469934      -2.57407129E-03  0.299736679       4.22075391E-06
  0.224264458      -2.04904471E-03  0.956145287      0.939150929      0.350589246      -2.17761425E-03  0.298976600       4.50946391E-06
  0.234458551      -2.11525219E-03  0.956256866      0.939304650      0.349664956      -1.72105909E-03  0.298179239       4.79631126E-06
  0.244652733      -2.16741930E-03  0.956375301      0.939467728      0.348688662      -1.19838142E-03  0.297337443       5.01610339E-06
  0.254846990      -2.20344099E-03  0.956503570      0.939644754      0.347650766      -6.02275191E-04  0.296443075       5.67734241E-06
  0.265041292      -2.22095218E-03  0.956645548      0.939840615      0.346539170       7.63976641E-05  0.295485884       6.31809235E-06
  0.275235593      -2.21726228E-03  0.956805646      0.940061331      0.345339507       8.48750235E-04  0.294453919       6.83777034E-06
  0.285429865      -2.18927371E-03  0.956988573      0.940313578      0.344035000       1.72866788E-03  0.293333113       7.46548176E-06
  0.295624018      -2.13337177E-03  0.957199872      0.940605104      0.342604995       2.73384782E-03  0.292106450       8.39307904E-06
  0.305817962      -2.04527588E-03  0.957445920      0.940944910      0.341024786       3.88675672E-03  0.290753633       9.79565084E-06
  0.316011488      -1.91983546E-03  0.957734346      0.941342890      0.339264125       5.21697430E-03  0.289250344       1.09691173E-05
  0.326204360      -1.75073801E-03  0.958073556      0.941811204      0.337285727       6.76349225E-03  0.287566811       1.25356019E-05
  0.336396307      -1.53008103E-03  0.958474159      0.942364454      0.335042268       8.57968908E-03  0.285666108       1.45342201E-05
  0.346586645      -1.24772848E-03  0.958948433      0.943019688      0.332473278       1.07408436E-02  0.283502251       1.70711428E-05
  0.356774658      -8.90274358E-04  0.959511518      0.943798184      0.329499960       1.33568579E-02  0.281017512       2.04388052E-05
  0.366958946      -4.39326104E-04  0.960182965      0.944727838      0.326018453       1.66168492E-02  0.278141111       2.56355852E-05
  0.377137065       1.33766516E-04  0.961004972      0.945868552      0.321937889       2.13699397E-02  0.274859160       3.43453139E-05
  0.387299746       9.32033930E-04  0.961848319      0.947042286      0.317920506       2.85539404E-02  0.271874070       4.63780016E-05
  0.397434235       2.03104783E-03  0.962442696      0.947877169      0.314715147       3.77472937E-02  0.269939601       6.26947731E-05
  0.407523632       3.48527054E-03  0.962681592      0.948230207      0.312627137       4.88307439E-02  0.269451857       8.75946134E-05
  0.417543113       5.36030158E-03  0.962446451      0.947945654      0.312090605       6.22806773E-02  0.271014899       1.29450113E-04
  0.427456856       7.73026003E-03  0.961458027      0.946655214      0.314075530       7.87606463E-02  0.275792539       2.05747783E-04
  0.437217921       1.06651187E-02  0.959192514      0.943669438      0.320427030       9.88723710E-02  0.285730869       3.49506736E-04
  0.446780443       1.41935814E-02  0.954710543      0.937751889      0.334401518      0.122297220      0.303637147       6.16034493E-04
  0.456144422       1.82216074E-02  0.946582079      0.926998556      0.360793799      0.145414174      0.332215667       1.05337985E-03
  0.465438336       2.24102195E-02  0.933629334      0.909825623      0.402942151      0.157859862      0.370503485       1.64377317E-03
  0.474928796       2.61229333E-02  0.917531013      0.888494730      0.453983426      0.144862026      0.409273922       2.26985291E-03
  0.484786808       2.86871437E-02  0.903942347      0.870628715      0.495014250      0.102368914      0.435312420       2.84587964E-03
  0.494905144       2.98680626E-02  0.897414386      0.862376153      0.512430429       4.64847349E-02  0.443607241       3.46883014E-03
  0.505094886       2.98680626E-02  0.896761000      0.862140596      0.509216011      -7.96972029E-03  0.438975751       4.21534479E-03
  0.515213192       2.86871418E-02  0.898610294      0.865627229      0.490197688      -6.27152100E-02  0.425552398       5.36721945E-03
  0.525071204       2.61229314E-02  0.902954102      0.872895658      0.454881519     -0.114230193      0.403148621       6.97771087E-03
  0.534561634       2.24102195E-02  0.911427319      0.885727644      0.409167379     -0.145337000      0.372262746       8.49502161E-03
  0.543855608       1.82216056E-02  0.923090637      0.902529478      0.364861906     -0.146796986      0.336151868       9.48506221E-03
  0.553219557       1.41935805E-02  0.934236526      0.918309629      0.330179244     -0.127779782      0.301804066       1.00151896E-02
  0.562782109       1.06651178E-02  0.942202866      0.929524064      0.307055652     -0.103295185      0.275661051       1.02659948E-02
  0.572543144       7.73025956E-03  0.947006881      0.936261892      0.293369979      -8.14226642E-02  0.258787572       1.03684179E-02
  0.582456887       5.36030112E-03  0.949687779      0.940007031      0.286026925      -6.38138130E-02  0.248952210       1.04029113E-02
  0.592476368       3.48527008E-03  0.951116979      0.941983819      0.282664537      -4.98650335E-02  0.243757114       1.03983451E-02