 title = "grid"
                                   variables = "x","y","rho","P","u","v","M","S"
 zone n=        3000  e =        5742  et=quadrilateral, f=fepoint
   0.00000000       0.00000000      0.953480601      0.935484529      0.363427073      -3.15745739E-04  0.310092360      -3.16649675E-08
   1.00000000       0.00000000      0.944635868      0.932433426      0.323936045       5.96852158E-04  0.275561988       9.78049450E-03
   1.00000000      0.300000012      0.951369762      0.932598054      0.367916644       3.03223951E-05  0.314060152       1.25151128E-05
   0.00000000      0.300000012      0.954811335      0.937313020      0.358339012      -2.11632832E-05  0.305665582       1.32247806E-07
   1.00000000       1.03448275E-02  0.946127236      0.932485044      0.330595821       8.67269875E-04  0.281441838       7.62737170E-03
   1.00000000       2.06896551E-02  0.947840929      0.932526648      0.338788539       1.10322388E-03  0.288671613       5.13844937E-03
   1.00000000       3.10344826E-02  0.948981941      0.932555795      0.345077544       1.23649370E-03  0.294202954       3.48539092E-03
   1.00000000       4.13793102E-02  0.949755013      0.932576120      0.350188136       1.30209886E-03  0.298678577       2.36722641E-03
   1.00000000       5.17241396E-02  0.950281680      0.932590902      0.354372740       1.32152950E-03  0.302329063       1.60687603E-03
   1.00000000       6.20689653E-02  0.950639665      0.932601750      0.357771963       1.30879891E-03  0.305284709       1.09127536E-03
   1.00000000       7.24137947E-02  0.950881422      0.932609797      0.360487312       1.27340609E-03  0.307639360       7.43880868E-04
   1.00000000       8.27586204E-02  0.951044142      0.932615578      0.362620324       1.22211012E-03  0.309484988       5.10556623E-04
   1.00000000       9.31034461E-02  0.951153278      0.932620108      0.364266306       1.15995016E-03  0.310906678       3.54755670E-04
   1.00000000      0.103448279      0.951226890      0.932623327      0.365509033       1.09062565E-03  0.311978698       2.49883160E-04
   1.00000000      0.113793105      0.951276779      0.932625592      0.366426438       1.01699342E-03  0.312769383       1.78862363E-04
   1.00000000      0.124137931      0.951310396      0.932627141      0.367086709       9.41288599E-04  0.313338071       1.31044537E-04
   1.00000000      0.134482756      0.951333344      0.932628214      0.367548108       8.65073001E-04  0.313735366       9.84054059E-05
   1.00000000      0.144827589      0.951349497      0.932628691      0.367858976       7.89868063E-04  0.314003140       7.51353800E-05
   1.00000000      0.155172408      0.951360703      0.932628691      0.368057996       7.16457667E-04  0.314174771       5.87068498E-05
   1.00000000      0.165517241      0.951368809      0.932628453      0.368175834       6.45645079E-04  0.314276636       4.64655459E-05
   1.00000000      0.175862074      0.951374710      0.932627976      0.368235528       5.77881059E-04  0.314328492       3.73106450E-05
   1.00000000      0.186206892      0.951378405      0.932627439      0.368254632       5.13368752E-04  0.314345479       3.12384218E-05
   1.00000000      0.196551725      0.951381028      0.932626784      0.368246168       4.52418230E-04  0.314338714       2.67513096E-05
   1.00000000      0.206896558      0.951383114      0.932625890      0.368220001       3.94942268E-04  0.314316809       2.27093697E-05
   1.00000000      0.217241377      0.951384544      0.932625055      0.368182749       3.40882631E-04  0.314285338       1.96639448E-05
   1.00000000      0.227586210      0.951385498      0.932624161      0.368139803       2.90056691E-04  0.314248949       1.73225999E-05
   1.00000000      0.237931028      0.951385796      0.932623327      0.368095070       2.42228067E-04  0.314210922       1.59777701E-05
   1.00000000      0.248275861      0.951385796      0.932622373      0.368051052       1.97266156E-04  0.314173490       1.49384141E-05
   1.00000000      0.258620679      0.951385796      0.932621419      0.368009865       1.55009664E-04  0.314138442       1.39847398E-05
   1.00000000      0.268965513      0.951385498      0.932620466      0.367972672       1.15316274E-04  0.314106822       1.33719295E-05
   1.00000000      0.279310346      0.951384842      0.932619154      0.367940396       7.83664509E-05  0.314079344       1.29118562E-05
   1.00000000      0.289655179      0.951383770      0.932617307      0.367915332       4.51794076E-05  0.314058125       1.25132501E-05
  0.989898980      0.300000012      0.951430082      0.932680845      0.367884219       3.60650774E-05  0.314028502       1.25020742E-05
  0.979797959      0.300000012      0.951567233      0.932869494      0.367816061       4.02478145E-05  0.313961208       1.29826367E-05
  0.969696999      0.300000012      0.951695979      0.933046162      0.367754489       4.32875568E-05  0.313900143       1.29044056E-05
  0.959595978      0.300000012      0.951815605      0.933210433      0.367701411       4.56205489E-05  0.313846916       1.29602849E-05
  0.949494958      0.300000012      0.951925516      0.933361292      0.367658347       4.73890432E-05  0.313802928       1.29863620E-05
  0.939393938      0.300000012      0.952025354      0.933498323      0.367626518       4.86413701E-05  0.313769192       1.28988177E-05
  0.929292917      0.300000012      0.952115059      0.933621168      0.367606640       4.94181404E-05  0.313746363       1.26026571E-05
  0.919191897      0.300000012      0.952194035      0.933729708      0.367599487       4.96540706E-05  0.313735038       1.27367675E-05
  0.909090936      0.300000012      0.952262580      0.933823824      0.367605776       4.94145315E-05  0.313735873       1.27553940E-05
  0.898989916      0.300000012      0.952320635      0.933903754      0.367625952       4.86703393E-05  0.313749254       1.29807740E-05
  0.888888896      0.300000012      0.952368796      0.933969438      0.367660582       4.73977125E-05  0.313775688       1.25057995E-05
  0.878787875      0.300000012      0.952406883      0.934021533      0.367710054       4.55486297E-05  0.313815445       1.23195350E-05
  0.868686855      0.300000012      0.952434957      0.934060037      0.367774844       4.31367334E-05  0.313868880       1.22524798E-05
  0.858585835      0.300000012      0.952453673      0.934085667      0.367855489       4.00444151E-05  0.313936502       1.22506171E-05
  0.848484874      0.300000012      0.952463388      0.934098780      0.367952704       3.61972343E-05  0.314018846       1.19972974E-05
  0.838383853      0.300000012      0.952464402      0.934100211      0.368066937       3.17194863E-05  0.314116240       1.19805336E-05
  0.828282833      0.300000012      0.952456951      0.934089780      0.368199021       2.63829606E-05  0.314229518       1.17663294E-05
  0.818181813      0.300000012      0.952441216      0.934068263      0.368349940       2.02096344E-05  0.314359337       1.18780881E-05
  0.808080792      0.300000012      0.952417672      0.934035718      0.368520677       1.32421856E-05  0.314506650       1.16880983E-05
  0.797979772      0.300000012      0.952386379      0.933992505      0.368712336       5.38444601E-06  0.314672321       1.13919377E-05
  0.787878811      0.300000012      0.952347100      0.933938444      0.368926287      -3.39042253E-06  0.314857543       1.12280250E-05
  0.777777791      0.300000012      0.952299893      0.933873475      0.369163692      -1.30033868E-05  0.315063298       1.10603869E-05
  0.767676771      0.300000012      0.952244580      0.933797479      0.369426191      -2.34310555E-05  0.315291017       1.10212713E-05
  0.757575750      0.300000012      0.952180862      0.933709919      0.369715124      -3.46243469E-05  0.315541834       1.09188259E-05
  0.747474730      0.300000012      0.952108443      0.933610380      0.370031863      -4.65377489E-05  0.315816998       1.07567757E-05
  0.737373710      0.300000012      0.952026844      0.933498323      0.370377481      -5.90678646E-05  0.316117376       1.07716769E-05
  0.727272749      0.300000012      0.951935828      0.933373392      0.370752990      -7.19922537E-05  0.316443950       1.07791275E-05
  0.717171729      0.300000012      0.951834917      0.933234513      0.371159226      -8.51959121E-05  0.316797435       1.03842467E-05
  0.707070708      0.300000012      0.951723635      0.933081567      0.371596336      -9.85685256E-05  0.317177981       1.01514161E-05
  0.696969688      0.300000012      0.951601923      0.932914376      0.372064531      -1.11783171E-04  0.317585737       9.99495387E-06
  0.686868668      0.300000012      0.951469481      0.932732642      0.372562885      -1.24571103E-04  0.318020016       1.00396574E-05
  0.676767647      0.300000012      0.951326847      0.932536423      0.373090029      -1.36614413E-04  0.318479627       9.58144665E-06
  0.666666687      0.300000012      0.951174259      0.932326615      0.373643845      -1.47539817E-04  0.318962663       9.08970833E-06
  0.656565666      0.300000012      0.951012433      0.932104230      0.374220788      -1.56972819E-04  0.319466114       8.73580575E-06
  0.646464646      0.300000012      0.950842440      0.931870759      0.374816656      -1.64462675E-04  0.319986284       8.55512917E-06
  0.636363626      0.300000012      0.950665891      0.931628346      0.375425696      -1.69410370E-04  0.320518166       8.31857324E-06
  0.626262605      0.300000012      0.950484753      0.931379735      0.376040697      -1.71236068E-04  0.321055502       8.20308924E-06
  0.616161644      0.300000012      0.950301588      0.931128263      0.376652896      -1.69363571E-04  0.321590543       7.97957182E-06
  0.606060624      0.300000012      0.950119257      0.930877984      0.377252042      -1.63181496E-04  0.322114497       7.77468085E-06
  0.595959604      0.300000012      0.949941158      0.930633366      0.377826154      -1.52167762E-04  0.322616845       7.45058060E-06
  0.585858583      0.300000012      0.949770629      0.930399179      0.378362596      -1.36167917E-04  0.323086590       7.09667802E-06
  0.575757563      0.300000012      0.949611187      0.930180013      0.378848046      -1.15278628E-04  0.323512048       6.60307705E-06
  0.565656543      0.300000012      0.949465990      0.929980695      0.379269511      -8.98564758E-05  0.323881924       6.36838377E-06
  0.555555582      0.300000012      0.949337959      0.929805219      0.379615009      -6.06916037E-05  0.324185640       6.44847751E-06
  0.545454562      0.300000012      0.949230015      0.929657221      0.379874408      -2.89003838E-05  0.324414551       6.48014247E-06
  0.535353541      0.300000012      0.949143708      0.929538846      0.380039990       4.30234013E-06  0.324561894       6.37583435E-06
  0.525252521      0.300000012      0.949080467      0.929452181      0.380107135       3.73941584E-05  0.324623525       6.43543899E-06
  0.515151501      0.300000012      0.949041128      0.929398119      0.380073786       6.98254880E-05  0.324597746       6.35534525E-06
  0.505050480      0.300000012      0.949026585      0.929377973      0.379939914       1.01418125E-04  0.324484497       6.08153641E-06
  0.494949490      0.300000012      0.949037492      0.929392934      0.379706442       1.32202840E-04  0.324284345       6.11506402E-06
  0.484848499      0.300000012      0.949073732      0.929442525      0.379376233       1.61897930E-04  0.323999852       5.99026680E-06
  0.474747479      0.300000012      0.949134648      0.929526150      0.378954291       1.90153209E-04  0.323635370       6.12996519E-06
  0.464646459      0.300000012      0.949220181      0.929643393      0.378446072       2.17659821E-04  0.323195517       6.03497028E-06
  0.454545468      0.300000012      0.949329317      0.929792941      0.377856702       2.44474679E-04  0.322684795       5.93997538E-06
  0.444444448      0.300000012      0.949460924      0.929973185      0.377191991       2.69353128E-04  0.322108269       5.76488674E-06
  0.434343427      0.300000012      0.949612558      0.930180788      0.376460791       2.90617027E-04  0.321473658       5.42216003E-06
  0.424242437      0.300000012      0.949781418      0.930411935      0.375674009       3.06916190E-04  0.320790470       4.93414700E-06
  0.414141417      0.300000012      0.949964523      0.930662930      0.374844015       3.17513797E-04  0.320069432       4.79631126E-06
  0.404040396      0.300000012      0.950159371      0.930929899      0.373983651       3.22480773E-04  0.319321752       4.45544720E-06
  0.393939406      0.300000012      0.950363636      0.931209505      0.373104721       3.22130392E-04  0.318557709       3.82214785E-06
  0.383838385      0.300000012      0.950574696      0.931498587      0.372218549       3.16908088E-04  0.317787051       3.31923366E-06
  0.373737365      0.300000012      0.950790703      0.931794703      0.371334702       3.07528040E-04  0.317018062       3.05660069E-06
  0.363636374      0.300000012      0.951009929      0.932095468      0.370461524       2.94616155E-04  0.316258013       3.04356217E-06
  0.353535354      0.300000012      0.951231420      0.932398856      0.369606018       2.78936292E-04  0.315513074       2.44751573E-06
  0.343434334      0.300000012      0.951453745      0.932703733      0.368773580       2.61334382E-04  0.314787835       2.17743218E-06
  0.333333343      0.300000012      0.951676071      0.933008611      0.367968261       2.42399154E-04  0.314085692       1.93528831E-06
  0.323232323      0.300000012      0.951897383      0.933312535      0.367193162       2.22508781E-04  0.313409507       2.13645399E-06
  0.313131303      0.300000012      0.952117503      0.933614552      0.366450548       2.02161944E-04  0.312761217       1.90734863E-06
  0.303030312      0.300000012      0.952335835      0.933913946      0.365741730       1.81723866E-04  0.312141955       1.55717134E-06
  0.292929292      0.300000012      0.952551425      0.934209645      0.365067869       1.61520788E-04  0.311552852       1.28336251E-06
  0.282828271      0.300000012      0.952763736      0.934500992      0.364429116       1.41735843E-04  0.310993880       1.03004277E-06
  0.272727281      0.300000012      0.952972353      0.934787512      0.363825649       1.22569574E-04  0.310465276       1.08033419E-06
  0.262626261      0.300000012      0.953176677      0.935067892      0.363257170       1.04186263E-04  0.309966922       8.97794962E-07
  0.252525240      0.300000012      0.953376234      0.935341775      0.362723500       8.66863993E-05  0.309498608       6.25848770E-07
  0.242424250      0.300000012      0.953570127      0.935607970      0.362223983       7.01386889E-05  0.309059829       5.19677997E-07
  0.232323229      0.300000012      0.953757584      0.935865521      0.361757994       5.46290648E-05  0.308650106       5.56930900E-07
  0.222222224      0.300000012      0.953938186      0.936113656      0.361324817       4.02295263E-05  0.308268785       5.55068254E-07
  0.212121218      0.300000012      0.954111040      0.936351120      0.360923886       2.70365927E-05  0.307915628       5.47617674E-07
  0.202020198      0.300000012      0.954275310      0.936576903      0.360554248       1.50241822E-05  0.307589680       6.10947609E-07
  0.191919193      0.300000012      0.954430401      0.936790049      0.360214919       4.23047868E-06  0.307290196       6.48200512E-07
  0.181818187      0.300000012      0.954575539      0.936989248      0.359904885      -5.26829854E-06  0.307016402       4.45172191E-07
  0.171717167      0.300000012      0.954709828      0.937173665      0.359623104      -1.35609553E-05  0.306767404       2.73808837E-07
  0.161616161      0.300000012      0.954832315      0.937341988      0.359368414      -2.05389806E-05  0.306542307       2.64495611E-07
  0.151515156      0.300000012      0.954942405      0.937493265      0.359139621      -2.62426183E-05  0.306340069       2.32830644E-07
  0.141414136      0.300000012      0.955039442      0.937626421      0.358935684      -3.08125236E-05  0.306159914       3.16649675E-08
  0.131313130      0.300000012      0.955122530      0.937740564      0.358755708      -3.42588901E-05  0.306001127      -4.09781933E-08
  0.121212125      0.300000012      0.955191076      0.937834561      0.358598769      -3.66925269E-05  0.305862904      -2.73808837E-07
  0.111111112      0.300000012      0.955244362      0.937907815      0.358464390      -3.82935141E-05  0.305744857      -2.40281224E-07
  0.101010099      0.300000012      0.955281794      0.937959492      0.358351946      -3.91930080E-05  0.305646539      -1.11758709E-08
   9.09090936E-02  0.300000012      0.955303192      0.937989295      0.358260989      -3.94492563E-05  0.305567533       3.66941094E-07
   8.08080807E-02  0.300000012      0.955308437      0.937996447      0.358191639      -3.92184702E-05  0.305508047       2.88709998E-07
   7.07070678E-02  0.300000012      0.955297172      0.937980771      0.358143687      -3.86747161E-05  0.305467874       8.94069672E-08
   6.06060624E-02  0.300000012      0.955269277      0.937942266      0.358116984      -3.78263539E-05  0.305446923      -6.14672899E-08
   5.05050495E-02  0.300000012      0.955224991      0.937881291      0.358111471      -3.66236163E-05  0.305445075      -1.47148967E-07
   4.04040404E-02  0.300000012      0.955164433      0.937798083      0.358126581      -3.51698982E-05  0.305461824      -9.87201929E-08
   3.03030312E-02  0.300000012      0.955087960      0.937693238      0.358161747      -3.33281714E-05  0.305496663       1.69500709E-07
   2.02020202E-02  0.300000012      0.954996765      0.937567830      0.358215123      -3.07834853E-05  0.305548042       1.22934580E-07
   1.01010101E-02  0.300000012      0.954892397      0.937424302      0.358283609      -2.67725663E-05  0.305613130      -7.45058060E-09
   0.00000000      0.289655179      0.954803228      0.937301755      0.358353913      -2.62449412E-05  0.305678815       1.30385160E-08
   0.00000000      0.279310346      0.954797268      0.937293589      0.358378112      -3.53748001E-05  0.305699855       9.31322575E-09
   0.00000000      0.268965513      0.954788208      0.937280953      0.358414084      -4.48925020E-05  0.305731148      -2.08616257E-07
   0.00000000      0.258620679      0.954775810      0.937264025      0.358462185      -5.42499038E-05  0.305772960      -4.09781933E-08
   0.00000000      0.248275861      0.954760253      0.937242746      0.358522236      -6.33264208E-05  0.305825144       3.35276127E-08
   0.00000000      0.237931028      0.954741895      0.937217355      0.358593792      -7.23614939E-05  0.305887401      -9.68575478E-08
   0.00000000      0.227586210      0.954720438      0.937187970      0.358676672      -8.11154969E-05  0.305959463       3.16649675E-08
   0.00000000      0.217241377      0.954696119      0.937154353      0.358770579      -8.96866914E-05  0.306041181      -2.38418579E-07
   0.00000000      0.206896558      0.954668939      0.937117159      0.358874947      -9.80959376E-05  0.306131929      -7.45058060E-09
   0.00000000      0.196551725      0.954639137      0.937076151      0.358989656      -1.06361535E-04  0.306231707      -9.87201929E-08
   0.00000000      0.186206892      0.954606593      0.937031507      0.359114528      -1.14653107E-04  0.306340277      -1.86264515E-09
   0.00000000      0.175862074      0.954571545      0.936983228      0.359249264      -1.22975121E-04  0.306457490      -1.30385160E-07
   0.00000000      0.165517241      0.954533756      0.936931372      0.359393775      -1.31407505E-04  0.306583196      -9.68575478E-08
   0.00000000      0.155172408      0.954493344      0.936876059      0.359548122      -1.40219025E-04  0.306717396       1.37835741E-07
   0.00000000      0.144827589      0.954450548      0.936817229      0.359712243      -1.49556392E-04  0.306860179       1.80676579E-07
   0.00000000      0.134482756      0.954405069      0.936754525      0.359886825      -1.59560470E-04  0.307012081      -8.19563866E-08
   0.00000000      0.124137931      0.954356611      0.936688066      0.360072106      -1.70314335E-04  0.307173222       6.89178705E-08
   0.00000000      0.113793105      0.954305351      0.936617494      0.360268742      -1.82296659E-04  0.307344317      -5.96046448E-08
   0.00000000      0.103448279      0.954250753      0.936542451      0.360478103      -1.95778528E-04  0.307526439      -1.50874257E-07
   0.00000000       9.31034461E-02  0.954192460      0.936462343      0.360701501      -2.10917715E-04  0.307720780      -1.11758709E-07
   0.00000000       8.27586204E-02  0.954130173      0.936376870      0.360940576      -2.28079865E-04  0.307928741       5.58793545E-09
   0.00000000       7.24137947E-02  0.954063416      0.936285138      0.361197233      -2.47393386E-04  0.308152050      -7.45058060E-09
   0.00000000       6.20689653E-02  0.953991473      0.936186373      0.361474007      -2.69189215E-04  0.308392793       9.87201929E-08
   0.00000000       5.17241396E-02  0.953913867      0.936079741      0.361774027      -2.93290592E-04  0.308653831       8.38190317E-08
   0.00000000       4.13793102E-02  0.953829587      0.935963929      0.362100840      -3.18796840E-04  0.308938116      -1.86264515E-09
   0.00000000       3.10344826E-02  0.953737974      0.935838044      0.362458438      -3.43048509E-04  0.309249163      -2.98023224E-08
   0.00000000       2.06896551E-02  0.953638375      0.935701191      0.362852067      -3.59726226E-04  0.309591532      -4.09781933E-08
   0.00000000       1.03448275E-02  0.953530967      0.935553789      0.363287628      -3.52978503E-04  0.309970111       1.26659870E-07
   1.01942774E-02  -1.06002917E-05  0.953502476      0.935514569      0.363427967      -5.57085790E-04  0.310091943      -3.35276127E-08
   2.03885511E-02  -4.05888240E-05  0.953555644      0.935587645      0.363316208      -1.15922489E-03  0.309994310       2.23517418E-08
   3.05827484E-02  -8.74972393E-05  0.953657448      0.935727656      0.363070279      -1.71394530E-03  0.309779704       2.08616257E-07
   4.07768898E-02  -1.49138228E-04  0.953791618      0.935912192      0.362733364      -2.20462889E-03  0.309485763       4.24683094E-07
   5.09709269E-02  -2.23550553E-04  0.953951299      0.936131597      0.362329274      -2.63266033E-03  0.309133112       4.58210707E-07
   6.11648858E-02  -3.08956922E-04  0.954132378      0.936380446      0.361872852      -3.00172227E-03  0.308734417       6.01634383E-07
   7.13587478E-02  -4.03728453E-04  0.954332352      0.936655581      0.361373127      -3.31547274E-03  0.308297515       9.33185220E-07
   8.15525427E-02  -5.06357115E-04  0.954550087      0.936954916      0.360836476      -3.57731432E-03  0.307827741       1.07474625E-06
   9.17462707E-02  -6.15430705E-04  0.954784870      0.937277555      0.360266805      -3.78990313E-03  0.307328582       1.07474625E-06
  0.101939946      -7.29613879E-04  0.955035865      0.937622309      0.359666854      -3.95553838E-03  0.306802273       8.51228833E-07
  0.112133577      -8.47629446E-04  0.955302715      0.937989175      0.359037787      -4.07584244E-03  0.306249738       9.27597284E-07
  0.122327171      -9.68243345E-04  0.955585420      0.938378155      0.358379960      -4.15226165E-03  0.305671304       1.30943954E-06
  0.132520750      -1.09024998E-03  0.955884039      0.938788950      0.357693106      -4.18542745E-03  0.305066764       1.53295696E-06
  0.142714337      -1.21245917E-03  0.956198633      0.939221680      0.356976092      -4.17573983E-03  0.304435164       1.73225999E-06
  0.152907923      -1.33368257E-03  0.956529319      0.939676523      0.356227577      -4.12313547E-03  0.303775340       1.75274909E-06
  0.163101539      -1.45272142E-03  0.956876218      0.940153837      0.355445355      -4.02718317E-03  0.303085476       1.96136534E-06
  0.173295200      -1.56835280E-03  0.957238972      0.940653563      0.354627132      -3.88681865E-03  0.302363485       2.72877514E-06
  0.183488905      -1.67931605E-03  0.957618058      0.941175282      0.353769928      -3.70084518E-03  0.301607102       2.89827585E-06
  0.193682685      -1.78429752E-03  0.958013475      0.941719651      0.352870584      -3.46736750E-03  0.300813586       3.12365592E-06
  0.203876525      -1.88191328E-03  0.958425224      0.942286730      0.351925462      -3.18392459E-03  0.299979806       3.56137753E-06
  0.214070454      -1.97069068E-03  0.958853424      0.942876279      0.350930184      -2.84749200E-03  0.299102306       3.65450978E-06
  0.224264458      -2.04904471E-03  0.959297836      0.943488657      0.349880099      -2.45420542E-03  0.298177123       4.19095159E-06
  0.234458551      -2.11525219E-03  0.959758759      0.944123805      0.348769754      -1.99947204E-03  0.297199786       4.69759107E-06
  0.244652733      -2.16741930E-03  0.960236490      0.944782197      0.347592860      -1.47754268E-03  0.296165168       5.07943332E-06
  0.254846990      -2.20344099E-03  0.960731328      0.945464551      0.346341908      -8.81275104E-04  0.295067072       5.80772758E-06
  0.265041292      -2.22095218E-03  0.961244047      0.946171522      0.345007867      -2.01940798E-04  0.293898225       6.28083944E-06
  0.275235593      -2.21726228E-03  0.961775362      0.946904600      0.343579829       5.71485376E-04  0.292649597       7.15442002E-06
  0.285429865      -2.18927371E-03  0.962326825      0.947665274      0.342044532       1.45245297E-03  0.291310638       7.65360892E-06
  0.295624018      -2.13337177E-03  0.962900162      0.948456407      0.340385437       2.45836447E-03  0.289867967       8.28318298E-06
  0.305817962      -2.04527588E-03  0.963498056      0.949281931      0.338581890       3.61125497E-03  0.288305044       9.27224755E-06
  0.316011488      -1.91983546E-03  0.964123785      0.950146496      0.336607724       4.94021503E-03  0.286601156       1.07213855E-05
  0.326204360      -1.75073801E-03  0.964782476      0.951057017      0.334429562       6.48372667E-03  0.284730315       1.23754144E-05
  0.336396307      -1.53008103E-03  0.965480804      0.952022791      0.332004249       8.29444267E-03  0.282659292       1.43516809E-05
  0.346586645      -1.24772848E-03  0.966227353      0.953055978      0.329275221       1.04466164E-02  0.280345738       1.69184059E-05
  0.356774658      -8.90274358E-04  0.967033863      0.954173207      0.326167762       1.30488267E-02  0.277735561       2.04443932E-05
  0.366958946      -4.39326104E-04  0.967916429      0.955397367      0.322582424       1.62879005E-02  0.274761915       2.54083425E-05
  0.377137065       1.33766516E-04  0.968913376      0.956783593      0.318432778       2.10044533E-02  0.271413952       3.40659171E-05
  0.387299746       9.32033930E-04  0.969895184      0.958153546      0.314376622       2.81247012E-02  0.268387377       4.69833612E-05
  0.397434235       2.03104783E-03  0.970595837      0.959139168      0.311154723       3.72298472E-02  0.266426533       6.40880316E-05
  0.407523632       3.48527054E-03  0.970910728      0.959599733      0.309069723       4.82038110E-02  0.265922964       8.99918377E-05
  0.417543113       5.36030158E-03  0.970723093      0.959381044      0.308553010       6.15207888E-02  0.267475039       1.32696703E-04
  0.427456856       7.73026003E-03  0.969759285      0.958121359      0.310562968       7.78425112E-02  0.272231489       2.09499151E-04
  0.437217921       1.06651187E-02  0.967503846      0.955140889      0.316923052       9.77686867E-02  0.282112837       3.53775918E-04
  0.446780443       1.41935814E-02  0.963030756      0.949216008      0.330852747      0.120988883      0.299890488       6.19046390E-04
  0.456144422       1.82216074E-02  0.954931200      0.938465536      0.357087791      0.143916130      0.328224838       1.05320849E-03
  0.465438336       2.24102195E-02  0.942046881      0.921324313      0.398914158      0.156274855      0.366140932       1.63714960E-03
  0.474928796       2.61229333E-02  0.926036775      0.900033891      0.449520916      0.143426374      0.404503673       2.25500762E-03
  0.484786808       2.86871437E-02  0.912473500      0.882132769      0.490220457      0.101375654      0.430292457       2.82198936E-03
  0.494905144       2.98680626E-02  0.905842841      0.873705149      0.507593095       4.60765734E-02  0.438609093       3.43288854E-03
  0.505094886       2.98680626E-02  0.904993474      0.873197496      0.504571140      -7.82457367E-03  0.434187293       4.16499749E-03
  0.515213192       2.86871418E-02  0.906612635      0.876377046      0.485881686      -6.20571822E-02  0.421061546       5.29715791E-03
  0.525071204       2.61229314E-02  0.910697162      0.883308053      0.451028734     -0.113119811      0.399041265       6.88151643E-03
  0.534561634       2.24102195E-02  0.918879747      0.895776808      0.405853897     -0.143952072      0.368609607       8.37604329E-03
  0.543855608       1.82216056E-02  0.930240393      0.912210584      0.362053216     -0.145387322      0.332982838       9.35272127E-03
  0.553219557       1.41935805E-02  0.941095352      0.927637994      0.327783972     -0.126535192      0.299099177       9.88139957E-03
  0.562782109       1.06651178E-02  0.948792040      0.938527524      0.304989010     -0.102281399      0.273354173       1.01488391E-02
  0.572543144       7.73025956E-03  0.953338385      0.944961488      0.291592240      -8.06284323E-02  0.256818920       1.02883931E-02
  0.582456887       5.36030112E-03  0.955761850      0.948407948      0.284547359      -6.32062405E-02  0.247301176       1.03745358E-02
  0.592476368       3.48527008E-03  0.956924498      0.950075269      0.281524181      -4.94096130E-02  0.242437229       1.04290033E-02