 title = "grid"
                                   variables = "x","y","rho","P","u","v","M","S"
 zone n=        3000  e =        5742  et=quadrilateral, f=fepoint
   0.00000000       0.00000000      0.954528749      0.936924696      0.359307826      -3.21577885E-04  0.306510270       1.19209290E-07
   1.00000000       0.00000000      0.944489598      0.932359040      0.324379861       5.67414041E-04  0.275929123       9.91756842E-03
   1.00000000      0.300000012      0.951306283      0.932510614      0.372488409       6.28709086E-06  0.317966998       1.21369958E-05
   0.00000000      0.300000012      0.954462528      0.936833680      0.359567940       1.07727583E-05  0.306736261       1.24797225E-07
   1.00000000       1.03448275E-02  0.946014583      0.932415307      0.331107676       8.20195361E-04  0.281871259       7.71926343E-03
   1.00000000       2.06896551E-02  0.947757185      0.932455599      0.339401066       1.03353267E-03  0.289191574       5.18597476E-03
   1.00000000       3.10344826E-02  0.948910892      0.932483435      0.345792562       1.14381372E-03  0.294812679       3.51260789E-03
   1.00000000       4.13793102E-02  0.949689865      0.932502687      0.351017922       1.18593627E-03  0.299387455       2.38444842E-03
   1.00000000       5.17241396E-02  0.950219154      0.932516038      0.355330318       1.18205487E-03  0.303147763       1.61875226E-03
   1.00000000       6.20689653E-02  0.950578034      0.932525277      0.358868271       1.14695239E-03  0.306222320       1.10000186E-03
   1.00000000       7.24137947E-02  0.950819969      0.932531297      0.361735135       1.09082065E-03  0.308706731       7.50156119E-04
   1.00000000       8.27586204E-02  0.950982630      0.932535112      0.364031464       1.02107751E-03  0.310692161       5.14779240E-04
   1.00000000       9.31034461E-02  0.951091290      0.932537198      0.365851432       9.43215273E-04  0.312262774       3.57037410E-04
   1.00000000      0.103448279      0.951163471      0.932537794      0.367277443       8.61350971E-04  0.313491523       2.51503661E-04
   1.00000000      0.113793105      0.951211870      0.932537496      0.368385434       7.78456975E-04  0.314445138       1.79875642E-04
   1.00000000      0.124137931      0.951243877      0.932536364      0.369242519       6.96925330E-04  0.315182060       1.31588429E-04
   1.00000000      0.134482756      0.951265097      0.932534516      0.369905442       6.18374732E-04  0.315751642       9.84165817E-05
   1.00000000      0.144827589      0.951279461      0.932532251      0.370420098       5.44158276E-04  0.316193640       7.47870654E-05
   1.00000000      0.155172408      0.951288879      0.932529747      0.370823681       4.75044275E-04  0.316540062       5.82430512E-05
   1.00000000      0.165517241      0.951294899      0.932527006      0.371144176       4.11589135E-04  0.316815019       4.64767218E-05
   1.00000000      0.175862074      0.951298952      0.932524264      0.371402532       3.54081247E-04  0.317036629       3.75267118E-05
   1.00000000      0.186206892      0.951301098      0.932521403      0.371614546       3.02536937E-04  0.317218453       3.13483179E-05
   1.00000000      0.196551725      0.951302528      0.932518721      0.371790737       2.56917730E-04  0.317369521       2.63676047E-05
   1.00000000      0.206896558      0.951303065      0.932516038      0.371938974       2.16922490E-04  0.317496568       2.26683915E-05
   1.00000000      0.217241377      0.951303303      0.932513773      0.372064173       1.82175863E-04  0.317603856       1.98911875E-05
   1.00000000      0.227586210      0.951303005      0.932511568      0.372170031       1.52155524E-04  0.317694545       1.79409981E-05
   1.00000000      0.237931028      0.951302946      0.932509959      0.372258395       1.26148007E-04  0.317770213       1.63372606E-05
   1.00000000      0.248275861      0.951303303      0.932508528      0.372330934       1.03377322E-04  0.317832440       1.43107027E-05
   1.00000000      0.258620679      0.951303184      0.932507634      0.372388363       8.30383797E-05  0.317881584       1.35004520E-05
   1.00000000      0.268965513      0.951303482      0.932507455      0.372431070       6.39003847E-05  0.317918122       1.28988177E-05
   1.00000000      0.279310346      0.951304257      0.932508051      0.372459412       4.42758865E-05  0.317942351       1.23865902E-05
   1.00000000      0.289655179      0.951305807      0.932510138      0.372474521       2.16587941E-05  0.317955166       1.23418868E-05
  0.989898980      0.300000012      0.951310217      0.932516158      0.372462034       1.18578064E-05  0.317944199       1.23158097E-05
  0.979797959      0.300000012      0.951326132      0.932538271      0.372407675       6.65955804E-06  0.317896664       1.26212835E-05
  0.969696999      0.300000012      0.951353073      0.932575285      0.372343034       2.08111919E-06  0.317839712       1.26603991E-05
  0.959595978      0.300000012      0.951391399      0.932627439      0.372267485      -2.37486461E-06  0.317772716       1.21705234E-05
  0.949494958      0.300000012      0.951440513      0.932694674      0.372181505      -6.82492146E-06  0.317696065       1.19358301E-05
  0.939393938      0.300000012      0.951499879      0.932776093      0.372086108      -1.15059620E-05  0.317610711       1.19190663E-05
  0.929292917      0.300000012      0.951568902      0.932870924      0.371982515      -1.64858793E-05  0.317517608       1.20289624E-05
  0.919191897      0.300000012      0.951647043      0.932977974      0.371872604      -2.17843353E-05  0.317418635       1.18352473E-05
  0.909090936      0.300000012      0.951733112      0.933096170      0.371758223      -2.74369522E-05  0.317315251       1.18948519E-05
  0.898989916      0.300000012      0.951826096      0.933223665      0.371641695      -3.36122393E-05  0.317209631       1.17141753E-05
  0.888888896      0.300000012      0.951924741      0.933358967      0.371525556      -4.02500445E-05  0.317103952       1.15968287E-05
  0.878787875      0.300000012      0.952027798      0.933500350      0.371412158      -4.73726213E-05  0.317000300       1.15223229E-05
  0.868686855      0.300000012      0.952133834      0.933645666      0.371304303      -5.50227960E-05  0.316901237       1.12131238E-05
  0.858585835      0.300000012      0.952241242      0.933793306      0.371204704      -6.32038864E-05  0.316809058       1.14459544E-05
  0.848484874      0.300000012      0.952349186      0.933941305      0.371116072      -7.19663003E-05  0.316726238       1.12820417E-05
  0.838383853      0.300000012      0.952456176      0.934087873      0.371041447      -8.13077640E-05  0.316655517       1.08815730E-05
  0.828282833      0.300000012      0.952560365      0.934230745      0.370983690      -9.12427568E-05  0.316599339       1.07102096E-05
  0.818181813      0.300000012      0.952660501      0.934368372      0.370945364      -1.01737911E-04  0.316559941       1.08368695E-05
  0.808080792      0.300000012      0.952755392      0.934498549      0.370929420      -1.12806483E-04  0.316540062       1.06692314E-05
  0.797979772      0.300000012      0.952843845      0.934619844      0.370938480      -1.24479397E-04  0.316541970       1.05630606E-05
  0.787878811      0.300000012      0.952924550      0.934730589      0.370975316      -1.36724266E-04  0.316568047       1.04699284E-05
  0.777777791      0.300000012      0.952996552      0.934829056      0.371042222      -1.49504864E-04  0.316620409       1.00191683E-05
  0.767676771      0.300000012      0.953058720      0.934914172      0.371141702      -1.62808603E-04  0.316701263       9.75467265E-06
  0.757575750      0.300000012      0.953110039      0.934984505      0.371276021      -1.76573711E-04  0.316812456       9.52184200E-06
  0.747474730      0.300000012      0.953150272      0.935039282      0.371446878      -1.90789491E-04  0.316955686       9.05245543E-06
  0.737373710      0.300000012      0.953178227      0.935077429      0.371656001      -2.05232966E-04  0.317132324       8.81031156E-06
  0.727272749      0.300000012      0.953193843      0.935098767      0.371904463      -2.19860973E-04  0.317343295       8.70414078E-06
  0.717171729      0.300000012      0.953196824      0.935102999      0.372193098      -2.34445397E-04  0.317589372       8.84756446E-06
  0.707070708      0.300000012      0.953187466      0.935090005      0.372521758      -2.48785189E-04  0.317870468       8.62032175E-06
  0.696969688      0.300000012      0.953166068      0.935060740      0.372889698      -2.62488087E-04  0.318185866       8.80472362E-06
  0.686868668      0.300000012      0.953133583      0.935015738      0.373295158      -2.75174913E-04  0.318534106       8.40798020E-06
  0.676767647      0.300000012      0.953090966      0.934956670      0.373735249      -2.86465918E-04  0.318912536       7.82124698E-06
  0.666666687      0.300000012      0.953038990      0.934885263      0.374205887      -2.95841222E-04  0.319317639       7.74487853E-06
  0.656565666      0.300000012      0.952979803      0.934803784      0.374701500      -3.02770786E-04  0.319744557       7.56047666E-06
  0.646464646      0.300000012      0.952915370      0.934715211      0.375215352      -3.06635309E-04  0.320187390       7.43567944E-06
  0.636363626      0.300000012      0.952848256      0.934623003      0.375739127      -3.06924136E-04  0.320638895       7.42450356E-06
  0.626262605      0.300000012      0.952781379      0.934530973      0.376263082      -3.03014269E-04  0.321090549       7.25500286E-06
  0.616161644      0.300000012      0.952717960      0.934443712      0.376776367      -2.94469268E-04  0.321532875       7.00168312E-06
  0.606060624      0.300000012      0.952661455      0.934365988      0.377266645      -2.80623819E-04  0.321955085       6.92158937E-06
  0.595959604      0.300000012      0.952615559      0.934303105      0.377720565      -2.61170149E-04  0.322345525       7.04079866E-06
  0.585858583      0.300000012      0.952584445      0.934260130      0.378124624      -2.36182837E-04  0.322692484       6.72228634E-06
  0.575757563      0.300000012      0.952571213      0.934241891      0.378465414      -2.05908393E-04  0.322984248       6.70552254E-06
  0.565656543      0.300000012      0.952579200      0.934252799      0.378730536      -1.70910746E-04  0.323209912       6.62915409E-06
  0.555555582      0.300000012      0.952610970      0.934296072      0.378909230      -1.32258516E-04  0.323360324       6.22496009E-06
  0.545454562      0.300000012      0.952668011      0.934374392      0.378993303      -9.10899835E-05  0.323428214       6.21750951E-06
  0.535353541      0.300000012      0.952750981      0.934488416      0.378977090      -4.89493541E-05  0.323408693       6.32740557E-06
  0.525252521      0.300000012      0.952860117      0.934638321      0.378857732      -7.09714095E-06  0.323299438       6.40004873E-06
  0.515151501      0.300000012      0.952994823      0.934823334      0.378634930       3.39774997E-05  0.323100150       6.42798841E-06
  0.505050480      0.300000012      0.953154504      0.935042620      0.378309458       7.42317497E-05  0.322811604       6.43730164E-06
  0.494949490      0.300000012      0.953337848      0.935294390      0.377883285       1.13991780E-04  0.322435528       6.34603202E-06
  0.484848499      0.300000012      0.953542769      0.935575902      0.377360314       1.52967405E-04  0.321975470       6.40191138E-06
  0.474747479      0.300000012      0.953766763      0.935883343      0.376746774       1.90958701E-04  0.321436942       6.11878932E-06
  0.464646459      0.300000012      0.954007149      0.936213553      0.376049489       2.28765261E-04  0.320825875       6.08712435E-06
  0.454545468      0.300000012      0.954261303      0.936562598      0.375274748       2.66441988E-04  0.320147961       5.95673919E-06
  0.444444448      0.300000012      0.954525888      0.936925948      0.374430537       3.02619243E-04  0.319410086       5.70341945E-06
  0.434343427      0.300000012      0.954796553      0.937297881      0.373528033       3.35156597E-04  0.318622142       5.65871596E-06
  0.424242437      0.300000012      0.955069065      0.937671959      0.372580737       3.62540188E-04  0.317796081       5.16697764E-06
  0.414141417      0.300000012      0.955338180      0.938041627      0.371603668       3.84031038E-04  0.316944867       4.90620732E-06
  0.404040396      0.300000012      0.955599546      0.938400805      0.370611697       3.99522774E-04  0.316081554       4.73856926E-06
  0.393939406      0.300000012      0.955849469      0.938743830      0.369618863       4.09391097E-04  0.315218449       4.10526991E-06
  0.383838385      0.300000012      0.956083953      0.939065993      0.368638068       4.13975707E-04  0.314366579       3.81469727E-06
  0.373737365      0.300000012      0.956299841      0.939362824      0.367680609       4.13897302E-04  0.313535959       3.81097198E-06
  0.363636374      0.300000012      0.956495047      0.939630806      0.366756201       4.09763219E-04  0.312734991       3.28943133E-06
  0.353535354      0.300000012      0.956667006      0.939866960      0.365873218       4.02220350E-04  0.311970860       2.91690230E-06
  0.343434334      0.300000012      0.956814528      0.940069497      0.365038067       3.92111106E-04  0.311249226       2.51457095E-06
  0.333333343      0.300000012      0.956936657      0.940237105      0.364255577       3.79951496E-04  0.310574174       2.11969018E-06
  0.323232323      0.300000012      0.957032681      0.940368891      0.363529205       3.66182416E-04  0.309948653       1.77137554E-06
  0.313131303      0.300000012      0.957102358      0.940464795      0.362861544       3.51141876E-04  0.309374839       1.82725489E-06
  0.303030312      0.300000012      0.957146227      0.940524995      0.362253845       3.35241959E-04  0.308853954       1.70059502E-06
  0.292929292      0.300000012      0.957164705      0.940550387      0.361706406       3.18795763E-04  0.308385998       1.68569386E-06
  0.282828271      0.300000012      0.957158625      0.940542042      0.361218750       3.01995606E-04  0.307970583       1.66893005E-06
  0.272727281      0.300000012      0.957129300      0.940501630      0.360789716       2.85149115E-04  0.307606667       1.61491334E-06
  0.262626261      0.300000012      0.957078159      0.940431178      0.360417098       2.68460688E-04  0.307292312       1.51805580E-06
  0.252525240      0.300000012      0.957006752      0.940332711      0.360098541       2.51992256E-04  0.307025313       1.28149986E-06
  0.242424250      0.300000012      0.956917107      0.940209031      0.359830707       2.35952772E-04  0.306802750       8.15838575E-07
  0.232323229      0.300000012      0.956811130      0.940063119      0.359610289       2.20423870E-04  0.306621611       7.28294253E-07
  0.222222224      0.300000012      0.956690848      0.939897478      0.359433740       2.05484874E-04  0.306478798       4.61935997E-07
  0.212121218      0.300000012      0.956558645      0.939715624      0.359296709       1.91204381E-04  0.306370437       4.80562449E-07
  0.202020198      0.300000012      0.956416845      0.939520478      0.359195381       1.77489230E-04  0.306293130       3.09199095E-07
  0.191919193      0.300000012      0.956267893      0.939315438      0.359125823       1.64355370E-04  0.306243420       1.19209290E-07
  0.181818187      0.300000012      0.956113994      0.939103842      0.359083891       1.51796587E-04  0.306217492       1.80676579E-07
  0.171717167      0.300000012      0.955957353      0.938888609      0.359065920       1.39778858E-04  0.306212157       3.66941094E-07
  0.161616161      0.300000012      0.955800533      0.938673079      0.359068185       1.28281492E-04  0.306224108       4.37721610E-07
  0.151515156      0.300000012      0.955645621      0.938460112      0.359087139       1.17252544E-04  0.306250215       4.50760126E-07
  0.141414136      0.300000012      0.955494642      0.938252389      0.359119534       1.06682055E-04  0.306287557       2.81259418E-07
  0.131313130      0.300000012      0.955349386      0.938052595      0.359162271       9.65145882E-05  0.306333303       1.45286322E-07
  0.121212125      0.300000012      0.955211461      0.937862992      0.359212428       8.68352290E-05  0.306384951       1.78813934E-07
  0.111111112      0.300000012      0.955082417      0.937685788      0.359267294       7.76451780E-05  0.306439966       2.90572643E-07
  0.101010099      0.300000012      0.954963863      0.937522471      0.359324098       6.89804365E-05  0.306496084      -7.26431608E-08
   9.09090936E-02  0.300000012      0.954856455      0.937374830      0.359380305       6.08981427E-05  0.306550950      -6.14672899E-08
   8.08080807E-02  0.300000012      0.954761267      0.937243879      0.359433681       5.33768980E-05  0.306602627      -1.95577741E-07
   7.07070678E-02  0.300000012      0.954679012      0.937130868      0.359481692       4.64773257E-05  0.306648850      -1.62050128E-07
   6.06060624E-02  0.300000012      0.954609871      0.937035799      0.359522671       4.02339938E-05  0.306688249      -2.14204192E-07
   5.05050495E-02  0.300000012      0.954554081      0.936959326      0.359554648       3.45691769E-05  0.306719095      -4.47034836E-08
   4.04040404E-02  0.300000012      0.954511642      0.936901331      0.359576434       2.93262055E-05  0.306740344       3.16649675E-07
   3.03030312E-02  0.300000012      0.954482555      0.936861157      0.359587580       2.43599570E-05  0.306751758       1.24797225E-07
   2.02020202E-02  0.300000012      0.954466045      0.936838210      0.359587967       1.94413315E-05  0.306753188      -1.93715096E-07
   1.01010101E-02  0.300000012      0.954460680      0.936831117      0.359578997       1.41677792E-05  0.306745827       1.15483999E-07
   0.00000000      0.289655179      0.954464495      0.936836302      0.359558940       2.33821138E-05  0.306728482       2.60770321E-08
   0.00000000      0.279310346      0.954470873      0.936844945      0.359534860       3.81234277E-05  0.306707561      -9.49949026E-08
   0.00000000      0.268965513      0.954482257      0.936860502      0.359491974       5.16933760E-05  0.306670249      -1.88127160E-07
   0.00000000      0.258620679      0.954498053      0.936882257      0.359431803       6.41517327E-05  0.306617886      -1.28522515E-07
   0.00000000      0.248275861      0.954518020      0.936909795      0.359355330       7.54914217E-05  0.306551367       1.67638063E-08
   0.00000000      0.237931028      0.954541922      0.936942637      0.359264076       8.53863603E-05  0.306472003       2.42143869E-08
   0.00000000      0.227586210      0.954569340      0.936980307      0.359159589       9.37113145E-05  0.306381106       9.31322575E-09
   0.00000000      0.217241377      0.954599559      0.937021792      0.359043896       1.00160243E-04  0.306280494      -1.02445483E-07
   0.00000000      0.206896558      0.954632103      0.937066615      0.358918935       1.04662220E-04  0.306171805       6.51925802E-08
   0.00000000      0.196551725      0.954666436      0.937113702      0.358787090       1.06983025E-04  0.306057125      -5.96046448E-08
   0.00000000      0.186206892      0.954701841      0.937162220      0.358650953       1.06915053E-04  0.305938751      -1.97440386E-07
   0.00000000      0.175862074      0.954737484      0.937211335      0.358513325       1.04178056E-04  0.305819035      -7.82310963E-08
   0.00000000      0.165517241      0.954772711      0.937259912      0.358377159       9.87320527E-05  0.305700600       1.00582838E-07
   0.00000000      0.155172408      0.954806626      0.937306464      0.358245879       9.02861066E-05  0.305586487       4.09781933E-08
   0.00000000      0.144827589      0.954838336      0.937350035      0.358122796       7.86933233E-05  0.305479407       6.14672899E-08
   0.00000000      0.134482756      0.954867125      0.937389612      0.358011603       6.38370984E-05  0.305382758       3.72529030E-09
   0.00000000      0.124137931      0.954891860      0.937423348      0.357915968       4.54626315E-05  0.305299640      -1.93715096E-07
   0.00000000      0.113793105      0.954911172      0.937450171      0.357840240       2.34981399E-05  0.305233747       9.12696123E-08
   0.00000000      0.103448279      0.954924524      0.937468350      0.357788354      -2.27208284E-06  0.305188686      -1.02445483E-07
   0.00000000       9.31034461E-02  0.954930604      0.937476754      0.357764721      -3.19921637E-05  0.305168122      -3.16649675E-08
   0.00000000       8.27586204E-02  0.954928339      0.937473595      0.357773930      -6.57369528E-05  0.305176109      -1.28522515E-07
   0.00000000       7.24137947E-02  0.954916298      0.937457204      0.357820630      -1.03541912E-04  0.305216730       6.51925802E-08
   0.00000000       6.20689653E-02  0.954893768      0.937426150      0.357909590      -1.45420127E-04  0.305294037      -3.16649675E-08
   0.00000000       5.17241396E-02  0.954859018      0.937378466      0.358046085      -1.90897641E-04  0.305412710       1.86264515E-09
   0.00000000       4.13793102E-02  0.954811096      0.937312663      0.358235121      -2.38848210E-04  0.305577040       1.15483999E-07
   0.00000000       3.10344826E-02  0.954748869      0.937227070      0.358482242      -2.86394672E-04  0.305791885       5.58793545E-09
   0.00000000       2.06896551E-02  0.954671681      0.937121212      0.358793050      -3.26765672E-04  0.306061953       2.19792128E-07
   0.00000000       1.03448275E-02  0.954579532      0.936994493      0.359173864      -3.44137312E-04  0.306392729       1.60187483E-07
   1.01942774E-02  -1.06002917E-05  0.954572439      0.936984837      0.359281868      -5.51018398E-04  0.306485504       2.88709998E-07
   2.03885511E-02  -4.05888240E-05  0.954669178      0.937117815      0.359125495      -1.13383564E-03  0.306347072       3.11061740E-07
   3.05827484E-02  -8.74972393E-05  0.954795599      0.937291741      0.358849585      -1.66750723E-03  0.306105375       5.42029738E-07
   4.07768898E-02  -1.49138228E-04  0.954936206      0.937484860      0.358494937      -2.13682419E-03  0.305795968       3.35276127E-07
   5.09709269E-02  -2.23550553E-04  0.955084085      0.937688470      0.358083814      -2.54342775E-03  0.305438042       7.59959221E-07
   6.11648858E-02  -3.08956922E-04  0.955235183      0.937896192      0.357630014      -2.89105903E-03  0.305043578       8.06525350E-07
   7.13587478E-02  -4.03728453E-04  0.955386817      0.938104928      0.357142031      -3.18364869E-03  0.304619789       1.11386180E-06
   8.15525427E-02  -5.06357115E-04  0.955537140      0.938311815      0.356625885      -3.42472922E-03  0.304171890       1.37463212E-06
   9.17462707E-02  -6.15430705E-04  0.955685079      0.938515127      0.356085926      -3.61716119E-03  0.303703606       1.30198896E-06
  0.101939946      -7.29613879E-04  0.955829561      0.938713968      0.355525315      -3.76346242E-03  0.303217649       1.45100057E-06
  0.112133577      -8.47629446E-04  0.955970228      0.938907385      0.354945838      -3.86541802E-03  0.302715480       1.45845115E-06
  0.122327171      -9.68243345E-04  0.956106484      0.939095080      0.354348928      -3.92462499E-03  0.302198350       1.87195837E-06
  0.132520750      -1.09024998E-03  0.956238270      0.939276755      0.353735477      -3.94197926E-03  0.301667005       2.32085586E-06
  0.142714337      -1.21245917E-03  0.956366241      0.939452767      0.353105694      -3.91803589E-03  0.301121712       2.38232315E-06
  0.152907923      -1.33368257E-03  0.956490040      0.939623415      0.352459282      -3.85292387E-03  0.300562054       2.78465450E-06
  0.163101539      -1.45272142E-03  0.956610501      0.939789414      0.351795346      -3.74624948E-03  0.299987376       3.13483179E-06
  0.173295200      -1.56835280E-03  0.956728518      0.939951718      0.351112515      -3.59721715E-03  0.299396455       3.11248004E-06
  0.183488905      -1.67931605E-03  0.956844807      0.940111756      0.350408673      -3.40450904E-03  0.298787445       3.13296914E-06
  0.193682685      -1.78429752E-03  0.956960380      0.940270960      0.349681020      -3.16627230E-03  0.298157901       3.42726707E-06
  0.203876525      -1.88191328E-03  0.957076609      0.940431058      0.348926038      -2.88001704E-03  0.297504842       3.60794365E-06
  0.214070454      -1.97069068E-03  0.957195342      0.940594614      0.348139018      -2.54264870E-03  0.296824217       3.85195017E-06
  0.224264458      -2.04904471E-03  0.957318246      0.940763891      0.347314537      -2.15022056E-03  0.296111405       4.05311584E-06
  0.234458551      -2.11525219E-03  0.957447350      0.940942109      0.346445888      -1.69802341E-03  0.295360625       4.70504165E-06
  0.244652733      -2.16741930E-03  0.957585335      0.941132605      0.345525205      -1.18003704E-03  0.294565260       5.41284680E-06
  0.254846990      -2.20344099E-03  0.957735240      0.941339254      0.344542742      -5.88953844E-04  0.293717206       5.80586493E-06
  0.265041292      -2.22095218E-03  0.957900047      0.941566586      0.343487263       8.41875881E-05  0.292806834       6.34044409E-06
  0.275235593      -2.21726228E-03  0.958083570      0.941819787      0.342344910       8.50565033E-04  0.291822642       7.02403486E-06
  0.285429865      -2.18927371E-03  0.958289683      0.942104161      0.341099858       1.72390591E-03  0.290751517       7.82124698E-06
  0.295624018      -2.13337177E-03  0.958523571      0.942426980      0.339732289       2.72198021E-03  0.289577156       8.70414078E-06
  0.305817962      -2.04527588E-03  0.958790839      0.942796052      0.338218570       3.86708858E-03  0.288280219       9.94093716E-06
  0.316011488      -1.91983546E-03  0.959098041      0.943220258      0.336529195       5.18865464E-03  0.286837071       1.13416463E-05
  0.326204360      -1.75073801E-03  0.959453106      0.943710744      0.334627569       6.72561349E-03  0.285218596       1.29584223E-05
  0.336396307      -1.53008103E-03  0.959865749      0.944280863      0.332467675       8.53110850E-03  0.283389002       1.49309635E-05
  0.346586645      -1.24772848E-03  0.960347414      0.944946527      0.329990089       1.06801046E-02  0.281303287       1.72704458E-05
  0.356774658      -8.90274358E-04  0.960912406      0.945728242      0.327117056       1.32821426E-02  0.278904527       2.07703561E-05
  0.366958946      -4.39326104E-04  0.961579561      0.946652472      0.323745966       1.65255275E-02  0.276123077       2.59466469E-05
  0.377137065       1.33766516E-04  0.962390184      0.947777987      0.319786847       2.12550517E-02  0.272945583       3.44794244E-05
  0.387299746       9.32033930E-04  0.963216305      0.948928416      0.315897495       2.84038372E-02  0.270069689       4.62867320E-05
  0.397434235       2.03104783E-03  0.963790417      0.949735880      0.312821239       3.75547856E-02  0.268243611       6.26165420E-05
  0.407523632       3.48527054E-03  0.964007080      0.950058222      0.310861886       4.85923737E-02  0.267861664       8.72574747E-05
  0.417543113       5.36030158E-03  0.963747501      0.949739695      0.310452253       6.19934648E-02  0.269526035       1.29008666E-04
  0.427456856       7.73026003E-03  0.962733805      0.948413134      0.312559098       7.84218758E-02  0.274396986       2.04598531E-04
  0.437217921       1.06651187E-02  0.960443556      0.945391715      0.319021851       9.84813198E-02  0.284414560       3.48122790E-04
  0.446780443       1.41935814E-02  0.955941498      0.939443350      0.333086669      0.121858455      0.302377939       6.14238903E-04
  0.456144422       1.82216074E-02  0.947801650      0.928668737      0.359535843      0.144946262      0.330985010       1.05087832E-03
  0.465438336       2.24102195E-02  0.934844673      0.911480725      0.401706070      0.157408431      0.369281769       1.63998827E-03
  0.474928796       2.61229333E-02  0.918728530      0.890114665      0.452773452      0.144502863      0.408084542       2.26541609E-03
  0.484786808       2.86871437E-02  0.905072391      0.872148156      0.493912041      0.102169104      0.434240699       2.84047425E-03
  0.494905144       2.98680626E-02  0.898412406      0.863712370      0.511555612       4.64438647E-02  0.442756236       3.46098840E-03
  0.505094886       2.98680626E-02  0.897585094      0.863241076      0.508648038      -7.90843461E-03  0.438407123       4.20503691E-03
  0.515213192       2.86871418E-02  0.899247169      0.866474569      0.489960581      -6.26168102E-02  0.425281733       5.35375997E-03
  0.525071204       2.61229314E-02  0.903407753      0.873495042      0.454959482     -0.114163317      0.403162479       6.96095079E-03
  0.534561634       2.24102195E-02  0.911718369      0.886105418      0.409514427     -0.145357683      0.372529119       8.47445801E-03
  0.543855608       1.82216056E-02  0.923250735      0.902725756      0.365429223     -0.146917224      0.336632699       9.45970416E-03
  0.553219557       1.41935805E-02  0.934291661      0.918358386      0.330937833     -0.127968729      0.302466154       9.98571701E-03
  0.562782109       1.06651178E-02  0.942162275      0.929439962      0.307999223     -0.103512704      0.276487648       1.02357902E-02
  0.572543144       7.73025956E-03  0.946866930      0.936043859      0.294508100      -8.16418007E-02  0.259780616       1.03424806E-02
  0.582456887       5.36030112E-03  0.949440718      0.939647734      0.287375003      -6.40200004E-02  0.250123352       1.03848493E-02
  0.592476368       3.48527008E-03  0.950753391      0.941473603      0.284240544      -5.00511751E-02  0.245122194       1.03918463E-02