 title = "grid"
                                   variables = "x","y","rho","P","u","v","M","S"
 zone n=        3000  e =        5742  et=quadrilateral, f=fepoint
   0.00000000       0.00000000      0.954501688      0.936887383      0.359256715      -2.95301841E-04  0.306468397      -2.04890966E-08
   1.00000000       0.00000000      0.944500089      0.932402432      0.324953645       5.71246608E-04  0.276412308       9.94857028E-03
   1.00000000      0.300000012      0.951234043      0.932411730      0.371032983      -2.32285329E-05  0.316729367       1.24201179E-05
   0.00000000      0.300000012      0.954969704      0.937530577      0.357847840      -1.88834383E-05  0.305236489       3.72529030E-08
   1.00000000       1.03448275E-02  0.946026564      0.932455778      0.331692964       8.12365965E-04  0.282365143       7.74490833E-03
   1.00000000       2.06896551E-02  0.947771251      0.932494938      0.339982837       1.00993889E-03  0.289683282       5.20735048E-03
   1.00000000       3.10344826E-02  0.948924780      0.932520449      0.346349388       1.10393448E-03  0.295283586       3.53188626E-03
   1.00000000       4.13793102E-02  0.949704170      0.932536066      0.351534039       1.12980546E-03  0.299824387       2.39919126E-03
   1.00000000       5.17241396E-02  0.950233161      0.932544947      0.355792016       1.11002964E-03  0.303539008       1.62914023E-03
   1.00000000       6.20689653E-02  0.950590372      0.932548821      0.359262615       1.05959037E-03  0.306556672       1.10708550E-03
   1.00000000       7.24137947E-02  0.950829744      0.932548821      0.362051398       9.88783315E-04  0.308975041       7.54548237E-04
   1.00000000       8.27586204E-02  0.950988472      0.932545781      0.364260465       9.05225344E-04  0.310886562       5.17603010E-04
   1.00000000       9.31034461E-02  0.951092422      0.932540476      0.365985334       8.14599392E-04  0.312376469       3.58950347E-04
   1.00000000      0.103448279      0.951159537      0.932533383      0.367310166       7.21371034E-04  0.313519269       2.52539292E-04
   1.00000000      0.113793105      0.951202333      0.932525098      0.368311286       6.28684706E-04  0.314382106       1.80684030E-04
   1.00000000      0.124137931      0.951228201      0.932515562      0.369058013       5.39019296E-04  0.315025270       1.32339075E-04
   1.00000000      0.134482756      0.951243699      0.932505369      0.369608492       4.54251596E-04  0.315499365       9.86624509E-05
   1.00000000      0.144827589      0.951252043      0.932494581      0.370009959       3.75837990E-04  0.315845191       7.47721642E-05
   1.00000000      0.155172408      0.951255262      0.932483733      0.370300889       3.04571004E-04  0.316095829       5.84032387E-05
   1.00000000      0.165517241      0.951255560      0.932472944      0.370510489       2.41021204E-04  0.316276610       4.64320183E-05
   1.00000000      0.175862074      0.951253593      0.932462156      0.370661229       1.85550860E-04  0.316406757       3.76906246E-05
   1.00000000      0.186206892      0.951250255      0.932451844      0.370769918       1.38029471E-04  0.316500723       3.15606594E-05
   1.00000000      0.196551725      0.951246738      0.932442009      0.370848358       9.82749334E-05  0.316568732       2.61589885E-05
   1.00000000      0.206896558      0.951242447      0.932432890      0.370905459       6.60084916E-05  0.316618294       2.27503479E-05
   1.00000000      0.217241377      0.951238334      0.932424486      0.370947182       4.04874627E-05  0.316654652       1.97999179E-05
   1.00000000      0.227586210      0.951234281      0.932417035      0.370977789       2.11541701E-05  0.316681385       1.77193433E-05
   1.00000000      0.237931028      0.951230526      0.932410538      0.371000350       7.10993982E-06  0.316701144       1.63353980E-05
   1.00000000      0.248275861      0.951227844      0.932404935      0.371016532      -2.65536346E-06  0.316715449       1.42268836E-05
   1.00000000      0.258620679      0.951225102      0.932400525      0.371027857      -9.06659625E-06  0.316725403       1.35656446E-05
   1.00000000      0.268965513      0.951223195      0.932397187      0.371034771      -1.32546302E-05  0.316731542       1.27814710E-05
   1.00000000      0.279310346      0.951222420      0.932395220      0.371037304      -1.64858520E-05  0.316733956       1.18389726E-05
   1.00000000      0.289655179      0.951221645      0.932394445      0.371036530      -2.01261992E-05  0.316733271       1.20867044E-05
  0.989898980      0.300000012      0.951176405      0.932332575      0.371052027      -2.18256682E-05  0.316749483       1.23213977E-05
  0.979797959      0.300000012      0.951042175      0.932148218      0.371100217      -2.28615590E-05  0.316799581       1.21649355E-05
  0.969696999      0.300000012      0.950910151      0.931967020      0.371148616      -2.39931323E-05  0.316849709       1.21090561E-05
  0.959595978      0.300000012      0.950781047      0.931789696      0.371196479      -2.53973121E-05  0.316899210       1.19358301E-05
  0.949494958      0.300000012      0.950655997      0.931618035      0.371243119      -2.70899709E-05  0.316947371       1.18073076E-05
  0.939393938      0.300000012      0.950536013      0.931453466      0.371288091      -2.91465785E-05  0.316993773       1.18818134E-05
  0.929292917      0.300000012      0.950421810      0.931296647      0.371331155      -3.16609112E-05  0.317038178       1.16992742E-05
  0.919191897      0.300000012      0.950314045      0.931149065      0.371372133      -3.46674642E-05  0.317080289       1.19879842E-05
  0.909090936      0.300000012      0.950214088      0.931011736      0.371411085      -3.81708560E-05  0.317120284       1.17942691E-05
  0.898989916      0.300000012      0.950121939      0.930885255      0.371448636      -4.23129059E-05  0.317158490       1.16303563E-05
  0.888888896      0.300000012      0.950038433      0.930770218      0.371484995      -4.70834166E-05  0.317195207       1.11535192E-05
  0.878787875      0.300000012      0.949963331      0.930666983      0.371521086      -5.25044015E-05  0.317231059       1.08908862E-05
  0.868686855      0.300000012      0.949896812      0.930575609      0.371558011      -5.85255366E-05  0.317267060       1.07251108E-05
  0.858585835      0.300000012      0.949838817      0.930495977      0.371596962      -6.53344905E-05  0.317304224       1.06301159E-05
  0.848484874      0.300000012      0.949789047      0.930427611      0.371639431      -7.29249732E-05  0.317343831       1.05481595E-05
  0.838383853      0.300000012      0.949746788      0.930369496      0.371687233      -8.12995786E-05  0.317387491       1.03171915E-05
  0.828282833      0.300000012      0.949711740      0.930321336      0.371742398      -9.05370980E-05  0.317436963       1.02389604E-05
  0.818181813      0.300000012      0.949683011      0.930281699      0.371807367      -1.00624020E-04  0.317494422       9.99122858E-06
  0.808080792      0.300000012      0.949659586      0.930249333      0.371884257      -1.11627087E-04  0.317561656       9.76584852E-06
  0.797979772      0.300000012      0.949640334      0.930222571      0.371975958      -1.23528604E-04  0.317641377       9.34675336E-06
  0.787878811      0.300000012      0.949624121      0.930200219      0.372085214      -1.36380593E-04  0.317735732       9.24617052E-06
  0.777777791      0.300000012      0.949609816      0.930180490      0.372214735      -1.50087406E-04  0.317847371       9.12882388E-06
  0.767676771      0.300000012      0.949596167      0.930161595      0.372367322      -1.64691388E-04  0.317978561       8.90158117E-06
  0.757575750      0.300000012      0.949581802      0.930142164      0.372545719      -1.80087998E-04  0.318131804       9.16793942E-06
  0.747474730      0.300000012      0.949565828      0.930120111      0.372752428      -1.96202745E-04  0.318309456       9.02265310E-06
  0.737373710      0.300000012      0.949547052      0.930094302      0.372989744      -2.12766317E-04  0.318513393       8.96304846E-06
  0.727272749      0.300000012      0.949524462      0.930063188      0.373259425      -2.29736819E-04  0.318745196       8.79913568E-06
  0.717171729      0.300000012      0.949497163      0.930025518      0.373562813      -2.46827578E-04  0.319006175       8.55885446E-06
  0.707070708      0.300000012      0.949464142      0.929980397      0.373900563      -2.63775815E-04  0.319296837       8.71159136E-06
  0.696969688      0.300000012      0.949425280      0.929926991      0.374272436      -2.80243985E-04  0.319617033       8.59610736E-06
  0.686868668      0.300000012      0.949380398      0.929865479      0.374677390      -2.95835052E-04  0.319965899       8.64081085E-06
  0.676767647      0.300000012      0.949329674      0.929795802      0.375113487      -3.10219562E-04  0.320341766       8.54209065E-06
  0.666666687      0.300000012      0.949273646      0.929718435      0.375577420      -3.22816282E-04  0.320741832       7.91437924E-06
  0.656565666      0.300000012      0.949212849      0.929634869      0.376064897      -3.33158678E-04  0.321162283       7.74674118E-06
  0.646464646      0.300000012      0.949148953      0.929547071      0.376570135      -3.40777478E-04  0.321598113       7.52322376E-06
  0.636363626      0.300000012      0.949083745      0.929457486      0.377086103      -3.45166249E-04  0.322043240       7.30529428E-06
  0.626262605      0.300000012      0.949019194      0.929369032      0.377604306      -3.45814682E-04  0.322490185       7.37048686E-06
  0.616161644      0.300000012      0.948958397      0.929285467      0.378115058      -3.42288346E-04  0.322930574       7.12461770E-06
  0.606060624      0.300000012      0.948904455      0.929211259      0.378607512      -3.33771575E-04  0.323354840       6.85453415E-06
  0.595959604      0.300000012      0.948861122      0.929151773      0.379069179      -3.19893879E-04  0.323752105       6.81541860E-06
  0.585858583      0.300000012      0.948831975      0.929111898      0.379487127      -3.00655141E-04  0.324111015       6.85453415E-06
  0.575757563      0.300000012      0.948821068      0.929096937      0.379848033      -2.76188628E-04  0.324419975       6.90110028E-06
  0.565656543      0.300000012      0.948831856      0.929111719      0.380139321      -2.46763258E-04  0.324668050       6.84335828E-06
  0.555555582      0.300000012      0.948867619      0.929160714      0.380349189      -2.13241627E-04  0.324844807       6.79865479E-06
  0.545454562      0.300000012      0.948931038      0.929247320      0.380467862      -1.76596295E-04  0.324941844       6.41308725E-06
  0.535353541      0.300000012      0.949023724      0.929374337      0.380487531      -1.38076997E-04  0.324952304       6.36838377E-06
  0.525252521      0.300000012      0.949147046      0.929543257      0.380402744      -9.91187917E-05  0.324871510       6.26593828E-06
  0.515151501      0.300000012      0.949301541      0.929755151      0.380210698      -6.07148213E-05  0.324696869       6.26407564E-06
  0.505050480      0.300000012      0.949487507      0.930010259      0.379910380      -2.34269446E-05  0.324427664       6.42985106E-06
  0.494949490      0.300000012      0.949704885      0.930308461      0.379502326       1.28415895E-05  0.324064374       6.48945570E-06
  0.484848499      0.300000012      0.949952900      0.930648744      0.378989488       4.79795381E-05  0.323609501       6.63101673E-06
  0.474747479      0.300000012      0.950230062      0.931028605      0.378376812       8.16165993E-05  0.323067576       6.33671880E-06
  0.464646459      0.300000012      0.950534284      0.931445718      0.377670735       1.14246584E-04  0.322444141       6.09457493E-06
  0.454545468      0.300000012      0.950863600      0.931897581      0.376877725       1.46084174E-04  0.321744800       6.15231693E-06
  0.444444448      0.300000012      0.951215446      0.932380140      0.376005560       1.76088608E-04  0.320976496       5.87850809E-06
  0.434343427      0.300000012      0.951586306      0.932888806      0.375064671       2.02678915E-04  0.320148408       5.55254519E-06
  0.424242437      0.300000012      0.951971948      0.933417916      0.374067903       2.24692063E-04  0.319271773       5.31785190E-06
  0.414141417      0.300000012      0.952368081      0.933961630      0.373029292       2.41433299E-04  0.318358868       5.21354377E-06
  0.404040396      0.300000012      0.952770531      0.934513807      0.371962845       2.52728903E-04  0.317421943       4.81866300E-06
  0.393939406      0.300000012      0.953175068      0.935068846      0.370882541       2.58833286E-04  0.316473275       4.23192978E-06
  0.383838385      0.300000012      0.953577816      0.935621500      0.369801044       2.60273373E-04  0.315523863       3.66196036E-06
  0.373737365      0.300000012      0.953975141      0.936166883      0.368729860       2.57491745E-04  0.314583749       3.23913991E-06
  0.363636374      0.300000012      0.954363823      0.936700761      0.367679030       2.51153135E-04  0.313661695       3.06405127E-06
  0.353535354      0.300000012      0.954741180      0.937218904      0.366657078       2.41938047E-04  0.312765241       2.55741179E-06
  0.343434334      0.300000012      0.955104530      0.937718213      0.365671098       2.30636244E-04  0.311900407       2.52202153E-06
  0.333333343      0.300000012      0.955451906      0.938195765      0.364726752       2.17656241E-04  0.311072320       2.58162618E-06
  0.323232323      0.300000012      0.955781400      0.938648641      0.363828540       2.03527365E-04  0.310284853       2.43820250E-06
  0.313131303      0.300000012      0.956091225      0.939074636      0.362980098       1.88704827E-04  0.309541196       2.42888927E-06
  0.303030312      0.300000012      0.956380367      0.939471841      0.362183720       1.73530614E-04  0.308843464       1.98930502E-06
  0.292929292      0.300000012      0.956647158      0.939838350      0.361441165       1.58308758E-04  0.308193117       1.50501728E-06
  0.282828271      0.300000012      0.956890583      0.940172791      0.360753447       1.43271958E-04  0.307591140       1.11572444E-06
  0.272727281      0.300000012      0.957109630      0.940474153      0.360120893       1.28612417E-04  0.307037741       1.16042793E-06
  0.262626261      0.300000012      0.957303822      0.940740883      0.359543234       1.14498544E-04  0.306532860       6.72414899E-07
  0.252525240      0.300000012      0.957472503      0.940972388      0.359020174       1.01046542E-04  0.306076199       6.89178705E-08
  0.242424250      0.300000012      0.957614660      0.941168129      0.358550787       8.83187167E-05  0.305666953       2.47731805E-07
  0.232323229      0.300000012      0.957730472      0.941327691      0.358133703       7.63828430E-05  0.305303931       4.45172191E-07
  0.222222224      0.300000012      0.957819700      0.941450655      0.357767969       6.52042509E-05  0.304986447       6.66826963E-07
  0.212121218      0.300000012      0.957882702      0.941537321      0.357451767       5.48260359E-05  0.304712892       6.05359674E-07
  0.202020198      0.300000012      0.957919419      0.941587865      0.357183456       4.51764681E-05  0.304481834       6.94766641E-07
  0.191919193      0.300000012      0.957930386      0.941602826      0.356961370       3.62263199E-05  0.304291815       5.38304448E-07
  0.181818187      0.300000012      0.957916021      0.941582799      0.356783450       2.80065851E-05  0.304141134       2.17929482E-07
  0.171717167      0.300000012      0.957877100      0.941529095      0.356647611       2.04442749E-05  0.304027826       1.09896064E-07
  0.161616161      0.300000012      0.957814276      0.941442788      0.356551319       1.35962509E-05  0.303949684       2.73808837E-07
  0.151515156      0.300000012      0.957728922      0.941325247      0.356492013       7.40269797E-06  0.303904563       1.26659870E-07
  0.141414136      0.300000012      0.957622349      0.941178560      0.356467009       1.90008723E-06  0.303890020       6.14672899E-08
  0.131313130      0.300000012      0.957496107      0.941004574      0.356472969      -2.85444867E-06  0.303903162      -1.97440386E-07
  0.121212125      0.300000012      0.957351506      0.940805674      0.356506735      -6.91224886E-06  0.303941131      -1.26659870E-07
  0.111111112      0.300000012      0.957190573      0.940584123      0.356564850      -1.03061166E-05  0.304000914      -3.46451998E-07
  0.101010099      0.300000012      0.957014859      0.940342724      0.356643647      -1.30083736E-05  0.304079205      -7.45058060E-09
   9.09090936E-02  0.300000012      0.956826746      0.940084040      0.356739551      -1.51501918E-05  0.304172933       1.47148967E-07
   8.08080807E-02  0.300000012      0.956628144      0.939811051      0.356849074      -1.67484231E-05  0.304278910       2.96160579E-07
   7.07070678E-02  0.300000012      0.956421316      0.939526498      0.356968790      -1.80160769E-05  0.304394156       2.10478902E-07
   6.06060624E-02  0.300000012      0.956208169      0.939233363      0.357095927      -1.90360333E-05  0.304516137       1.54599547E-07
   5.05050495E-02  0.300000012      0.955990851      0.938934565      0.357227623      -1.98924299E-05  0.304642320       2.42143869E-07
   4.04040404E-02  0.300000012      0.955771446      0.938632607      0.357361704      -2.08230667E-05  0.304770708      -7.63684511E-08
   3.03030312E-02  0.300000012      0.955551684      0.938330472      0.357496381      -2.19903468E-05  0.304899573      -1.21071935E-07
   2.02020202E-02  0.300000012      0.955333531      0.938030958      0.357630014      -2.31747435E-05  0.305027395       3.61353159E-07
   1.01010101E-02  0.300000012      0.955119789      0.937736750      0.357759476      -2.36194865E-05  0.305151552      -1.13621354E-07
   0.00000000      0.289655179      0.954956114      0.937511861      0.357864857      -4.20473998E-06  0.305251896      -4.84287739E-08
   0.00000000      0.279310346      0.954953253      0.937508047      0.357873470       8.54491191E-06  0.305259407       1.32247806E-07
   0.00000000      0.268965513      0.954953015      0.937507689      0.357869297       1.89294824E-05  0.305255860       1.13621354E-07
   0.00000000      0.258620679      0.954954863      0.937510252      0.357854635       2.79164324E-05  0.305243224       1.24797225E-07
   0.00000000      0.248275861      0.954958439      0.937515080      0.357830971       3.58891884E-05  0.305222809       2.04890966E-08
   0.00000000      0.237931028      0.954963505      0.937522054      0.357799232       4.26610495E-05  0.305195451       2.04890966E-08
   0.00000000      0.227586210      0.954969823      0.937530756      0.357760787       4.81186544E-05  0.305162251       4.84287739E-08
   0.00000000      0.217241377      0.954977036      0.937540650      0.357716829       5.22081646E-05  0.305124283      -9.31322575E-09
   0.00000000      0.206896558      0.954984903      0.937551439      0.357668638       5.46756346E-05  0.305082679      -2.23517418E-08
   0.00000000      0.196551725      0.954993069      0.937562704      0.357617885       5.54503167E-05  0.305038869       1.49011612E-08
   0.00000000      0.186206892      0.955001116      0.937573731      0.357566267       5.42750749E-05  0.304994345      -1.30385160E-08
   0.00000000      0.175862074      0.955008566      0.937584162      0.357515693       5.11004437E-05  0.304950655       2.08616257E-07
   0.00000000      0.165517241      0.955015361      0.937593222      0.357468247       4.57276401E-05  0.304909825      -8.56816769E-08
   0.00000000      0.155172408      0.955020428      0.937600195      0.357426405       3.78777586E-05  0.304873794      -8.56816769E-08
   0.00000000      0.144827589      0.955023289      0.937604368      0.357392371       2.74313297E-05  0.304844558       1.75088644E-07
   0.00000000      0.134482756      0.955023706      0.937604666      0.357368946       1.44250962E-05  0.304824591      -1.22934580E-07
   0.00000000      0.124137931      0.955020845      0.937600732      0.357358843      -1.44847354E-06  0.304816127      -1.45286322E-07
   0.00000000      0.113793105      0.955013812      0.937591314      0.357365161      -2.04226108E-05  0.304821968       1.34110451E-07
   0.00000000      0.103448279      0.955002129      0.937575161      0.357391000      -4.25004473E-05  0.304844737       5.77419996E-08
   0.00000000       9.31034461E-02  0.954984844      0.937551320      0.357439697      -6.80833618E-05  0.304887384      -5.58793545E-08
   0.00000000       8.27586204E-02  0.954961121      0.937518656      0.357514977      -9.70179826E-05  0.304953158      -1.45286322E-07
   0.00000000       7.24137947E-02  0.954930067      0.937475979      0.357620597      -1.29595181E-04  0.305045217      -1.24797225E-07
   0.00000000       6.20689653E-02  0.954890788      0.937422037      0.357760608      -1.65678081E-04  0.305167198      -5.96046448E-08
   0.00000000       5.17241396E-02  0.954842269      0.937355280      0.357939482      -2.04978962E-04  0.305322915      -1.35973096E-07
   0.00000000       4.13793102E-02  0.954783201      0.937274218      0.358161718      -2.46245181E-04  0.305516273      -5.21540642E-08
   0.00000000       3.10344826E-02  0.954712868      0.937177598      0.358432323      -2.86354829E-04  0.305751592       3.72529030E-08
   0.00000000       2.06896551E-02  0.954630673      0.937064707      0.358756721      -3.18351347E-04  0.306033611       1.09896064E-07
   0.00000000       1.03448275E-02  0.954536915      0.936935723      0.359140635      -3.25434201E-04  0.306367129      -8.38190317E-08
   1.01942774E-02  -1.06002917E-05  0.954474986      0.936850846      0.359288096      -5.28259785E-04  0.306497067       1.89989805E-07
   2.03885511E-02  -4.05888240E-05  0.954411030      0.936763108      0.359246880      -1.11272419E-03  0.306467116       3.33413482E-07
   3.05827484E-02  -8.74972393E-05  0.954384744      0.936727166      0.359077930      -1.65163260E-03  0.306326449       5.49480319E-07
   4.07768898E-02  -1.49138228E-04  0.954380274      0.936720967      0.358824223      -2.12798710E-03  0.306112438       4.73111868E-07
   5.09709269E-02  -2.23550553E-04  0.954390526      0.936735213      0.358509898      -2.54303566E-03  0.305845886       6.81728125E-07
   6.11648858E-02  -3.08956922E-04  0.954412043      0.936765134      0.358149230      -2.90032499E-03  0.305539131       9.96515155E-07
   7.13587478E-02  -4.03728453E-04  0.954442680      0.936807394      0.357751489      -3.20340041E-03  0.305200070       1.23120844E-06
   8.15525427E-02  -5.06357115E-04  0.954481184      0.936860323      0.357322693      -3.45566776E-03  0.304833829       1.24610960E-06
   9.17462707E-02  -6.15430705E-04  0.954526663      0.936922848      0.356866807      -3.65973916E-03  0.304443777       1.24424696E-06
  0.101939946      -7.29613879E-04  0.954578698      0.936994374      0.356386125      -3.81796365E-03  0.304031819       1.22934580E-06
  0.112133577      -8.47629446E-04  0.954637468      0.937075198      0.355881840      -3.93196754E-03  0.303599000       1.32992864E-06
  0.122327171      -9.68243345E-04  0.954703033      0.937165380      0.355354279      -4.00321884E-03  0.303145468       1.42864883E-06
  0.132520750      -1.09024998E-03  0.954775810      0.937265694      0.354803115      -4.03240835E-03  0.302670985       1.71363354E-06
  0.142714337      -1.21245917E-03  0.954856455      0.937377036      0.354227304      -4.02002176E-03  0.302174538       2.22772360E-06
  0.152907923      -1.33368257E-03  0.954945862      0.937500060      0.353625596      -3.96610936E-03  0.301655143       2.43447721E-06
  0.163101539      -1.45272142E-03  0.955044925      0.937636316      0.352996081      -3.87031958E-03  0.301111042       2.52388418E-06
  0.173295200      -1.56835280E-03  0.955154479      0.937787175      0.352336437      -3.73159582E-03  0.300540209       2.85357237E-06
  0.183488905      -1.67931605E-03  0.955275714      0.937954247      0.351643920      -3.54869990E-03  0.299940258       3.24472785E-06
  0.193682685      -1.78429752E-03  0.955409825      0.938139081      0.350915402      -3.31975240E-03  0.299308509       3.80352139E-06
  0.203876525      -1.88191328E-03  0.955558360      0.938343346      0.350146800      -3.04213772E-03  0.298641562       3.82587314E-06
  0.214070454      -1.97069068E-03  0.955722749      0.938569605      0.349333733      -2.71277176E-03  0.297935545       4.08478081E-06
  0.224264458      -2.04904471E-03  0.955904484      0.938819468      0.348470896      -2.32779211E-03  0.297186017       4.08105552E-06
  0.234458551      -2.11525219E-03  0.956105232      0.939095736      0.347551882      -1.88234646E-03  0.296387523       4.39956784E-06
  0.244652733      -2.16741930E-03  0.956326902      0.939400792      0.346569479      -1.37043081E-03  0.295533985       4.63239849E-06
  0.254846990      -2.20344099E-03  0.956571877      0.939738035      0.345514685      -7.84821459E-04  0.294617832       4.95836139E-06
  0.265041292      -2.22095218E-03  0.956842244      0.940110266      0.344376922      -1.16461822E-04  0.293630272       5.29550016E-06
  0.275235593      -2.21726228E-03  0.957140505      0.940521300      0.343143463       6.45779306E-04  0.292560697       6.15790486E-06
  0.285429865      -2.18927371E-03  0.957470119      0.940975785      0.341799140       1.51572505E-03  0.291396677       7.20098615E-06
  0.295624018      -2.13337177E-03  0.957834780      0.941478550      0.340325356       2.51096697E-03  0.290123045       8.25524330E-06
  0.305817962      -2.04527588E-03  0.958238900      0.942035794      0.338699311       3.65380244E-03  0.288721263       9.43243504E-06
  0.316011488      -1.91983546E-03  0.958687484      0.942654669      0.336892664       4.97357408E-03  0.287168682       1.09504908E-05
  0.326204360      -1.75073801E-03  0.959187210      0.943344176      0.334869951       6.50902977E-03  0.285437316       1.25057995E-05
  0.336396307      -1.53008103E-03  0.959746182      0.944115579      0.332586080       8.31313804E-03  0.283492297       1.42939389E-05
  0.346586645      -1.24772848E-03  0.960374177      0.944983304      0.329982549       1.04605770E-02  0.281289309       1.72201544E-05
  0.356774658      -8.90274358E-04  0.961083949      0.945964634      0.326983243       1.30603788E-02  0.278773099       2.08411366E-05
  0.366958946      -4.39326104E-04  0.961892903      0.947084069      0.323486745       1.63001977E-02  0.275874913       2.55964696E-05
  0.377137065       1.33766516E-04  0.962839901      0.948397696      0.319405019       2.10230555E-02  0.272582650       3.40621918E-05
  0.387299746       9.32033930E-04  0.963795364      0.949727118      0.315397739       2.81586610E-02  0.269594818       4.62364405E-05
  0.397434235       2.03104783E-03  0.964491665      0.950703919      0.312209457       3.72878052E-02  0.267660439       6.31362200E-05
  0.407523632       3.48527054E-03  0.964822769      0.951185465      0.310145646       4.82934304E-02  0.267174512       8.89673829E-05
  0.417543113       5.36030158E-03  0.964670599      0.951015890      0.309641570       6.16502278E-02  0.268740237       1.31506473E-04
  0.427456856       7.73026003E-03  0.963759720      0.949832022      0.311662734       7.80212730E-02  0.273514867       2.08413228E-04
  0.437217921       1.06651187E-02  0.961571872      0.946951509      0.318043739       9.80075151E-02  0.283432156       3.52935866E-04
  0.446780443       1.41935814E-02  0.957174301      0.941145360      0.332026005      0.121299013      0.301286340       6.20001927E-04
  0.456144422       1.82216074E-02  0.949148238      0.930523038      0.358380705      0.144302905      0.329770058       1.05799548E-03
  0.465438336       2.24102195E-02  0.936318338      0.913500607      0.400439471      0.156718239      0.367939413       1.64837763E-03
  0.474928796       2.61229333E-02  0.920329571      0.892294765      0.451405674      0.143851191      0.406652302       2.27403268E-03
  0.484786808       2.86871437E-02  0.906770051      0.874444127      0.492518902      0.101652443      0.432812572       2.84605101E-03
  0.494905144       2.98680626E-02  0.900165737      0.866071820      0.510244071       4.60986160E-02  0.441431671       3.45946103E-03
  0.505094886       2.98680626E-02  0.899380982      0.865650415      0.507453561      -8.09650775E-03  0.437208027       4.19384986E-03
  0.515213192       2.86871418E-02  0.901093781      0.868947089      0.488873750      -6.26678616E-02  0.424189836       5.33130392E-03
  0.525071204       2.61229314E-02  0.905312836      0.876043856      0.453969359     -0.114086360      0.402158678       6.92551211E-03
  0.534561634       2.24102195E-02  0.913679838      0.888737321      0.408603221     -0.145177647      0.371589541       8.43148306E-03
  0.543855608       1.82216056E-02  0.925258458      0.905438721      0.364572495     -0.146684647      0.335740000       9.41932760E-03
  0.553219557       1.41935805E-02  0.936333835      0.921144068      0.330116481     -0.127741411      0.301615745       9.95765813E-03
  0.562782109       1.06651178E-02  0.944230974      0.932290971      0.307206631     -0.103329197      0.275678724       1.02279801E-02
  0.572543144       7.73025956E-03  0.948958158      0.938955069      0.293751061      -8.15164521E-02  0.259015560       1.03591299E-02
  0.582456887       5.36030112E-03  0.951552570      0.942612886      0.286671102      -6.39527068E-02  0.249411359       1.04249073E-02
  0.592476368       3.48527008E-03  0.952888787      0.944486856      0.283605754      -5.00308238E-02  0.244471848       1.04464181E-02