 title = "grid"
                                   variables = "x","y","rho","P","u","v","M","S"
 zone n=        3000  e =        5742  et=quadrilateral, f=fepoint
   0.00000000       0.00000000      0.954322338      0.936641037      0.360034943      -3.06459377E-04  0.307143778       8.75443220E-08
   1.00000000       0.00000000      0.944409728      0.932301342      0.325089306       5.84296708E-04  0.276529461       9.97402333E-03
   1.00000000      0.300000012      0.951286614      0.932483256      0.369494200      -1.01687203E-06  0.315412402       1.17849559E-05
   0.00000000      0.300000012      0.955598712      0.938395143      0.355134875      -1.86767793E-05  0.302882552      -7.07805157E-08
   1.00000000       1.03448275E-02  0.945940912      0.932363451      0.331834078       8.70923686E-04  0.282486588       7.77266733E-03
   1.00000000       2.06896551E-02  0.947689950      0.932405233      0.340131253       1.12141133E-03  0.289811522       5.23124263E-03
   1.00000000       3.10344826E-02  0.948851585      0.932434380      0.346485466       1.26270775E-03  0.295402318       3.54757532E-03
   1.00000000       4.13793102E-02  0.949638605      0.932454824      0.351644605       1.33123144E-03  0.299921989       2.40871869E-03
   1.00000000       5.17241396E-02  0.950174630      0.932469189      0.355865449       1.34988793E-03  0.303605348       1.63408555E-03
   1.00000000       6.20689653E-02  0.950538397      0.932479918      0.359288692       1.33363006E-03  0.306582659       1.10976398E-03
   1.00000000       7.24137947E-02  0.950784266      0.932487249      0.362021834       1.29287899E-03  0.308953434       7.55516812E-04
   1.00000000       8.27586204E-02  0.950949490      0.932492673      0.364167154       1.23507634E-03  0.310810208       5.18087298E-04
   1.00000000       9.31034461E-02  0.951060116      0.932496369      0.365821749       1.16578641E-03  0.312239707       3.59145924E-04
   1.00000000      0.103448279      0.951134145      0.932498753      0.367069989       1.08916278E-03  0.313316733       2.52757221E-04
   1.00000000      0.113793105      0.951183975      0.932500124      0.367989808       1.00839627E-03  0.314109594       1.80926174E-04
   1.00000000      0.124137931      0.951217651      0.932500899      0.368651181       9.25938424E-04  0.314679384       1.32160261E-04
   1.00000000      0.134482756      0.951240540      0.932500780      0.369113147       8.43646878E-04  0.315077364       9.83327627E-05
   1.00000000      0.144827589      0.951255977      0.932500303      0.369423956       7.62961863E-04  0.315345138       7.51297921E-05
   1.00000000      0.155172408      0.951266348      0.932499468      0.369622797       6.84940373E-04  0.315516621       5.89750707E-05
   1.00000000      0.165517241      0.951273739      0.932498217      0.369740218       6.10255869E-04  0.315618187       4.67412174E-05
   1.00000000      0.175862074      0.951278687      0.932496786      0.369799644       5.39485482E-04  0.315669894       3.79048288E-05
   1.00000000      0.186206892      0.951282263      0.932495236      0.369818717       4.72914806E-04  0.315686911       3.09944153E-05
   1.00000000      0.196551725      0.951284647      0.932493627      0.369810760       4.10599081E-04  0.315680742       2.57268548E-05
   1.00000000      0.206896558      0.951285541      0.932492018      0.369785279       3.52490984E-04  0.315659344       2.27540731E-05
   1.00000000      0.217241377      0.951286316      0.932490289      0.369749397       2.98414030E-04  0.315629095       1.97514892E-05
   1.00000000      0.227586210      0.951286554      0.932488739      0.369708180       2.48165132E-04  0.315594226       1.76914036E-05
   1.00000000      0.237931028      0.951286972      0.932487249      0.369665384       2.01482850E-04  0.315557986       1.55195594E-05
   1.00000000      0.248275861      0.951286733      0.932485998      0.369623721       1.58053852E-04  0.315522581       1.45267695E-05
   1.00000000      0.258620679      0.951286614      0.932484567      0.369584948       1.17608412E-04  0.315489650       1.31819397E-05
   1.00000000      0.268965513      0.951286316      0.932483256      0.369550496       7.98061301E-05  0.315460414       1.22096390E-05
   1.00000000      0.279310346      0.951285601      0.932481885      0.369520783       4.48410901E-05  0.315435171       1.17793679E-05
   1.00000000      0.289655179      0.951284230      0.932480097      0.369498074       1.35993441E-05  0.315415859       1.18631870E-05
  0.989898980      0.300000012      0.951272488      0.932463884      0.369490534       5.02421244E-06  0.315410227       1.17532909E-05
  0.979797959      0.300000012      0.951235771      0.932413399      0.369490564       9.14731572E-06  0.315412670       1.16173178E-05
  0.969696999      0.300000012      0.951191485      0.932352602      0.369496167       1.22538486E-05  0.315420419       1.16471201E-05
  0.959595978      0.300000012      0.951139033      0.932280958      0.369509220       1.46154789E-05  0.315434992       1.19917095E-05
  0.949494958      0.300000012      0.951078832      0.932197869      0.369530678       1.64665089E-05  0.315457374       1.14627182E-05
  0.939393938      0.300000012      0.951010227      0.932103753      0.369561523       1.77863749E-05  0.315488279       1.14925206E-05
  0.929292917      0.300000012      0.950933516      0.931998551      0.369602442       1.85143199E-05  0.315528274       1.15167350E-05
  0.919191897      0.300000012      0.950849235      0.931882620      0.369653940       1.87576316E-05  0.315577865       1.12131238E-05
  0.909090936      0.300000012      0.950757325      0.931756258      0.369716465       1.84922283E-05  0.315637410       1.09598041E-05
  0.898989916      0.300000012      0.950658321      0.931620181      0.369790465       1.75876321E-05  0.315707177       1.07139349E-05
  0.888888896      0.300000012      0.950552523      0.931474805      0.369876355       1.60840991E-05  0.315787584       1.04680657E-05
  0.878787875      0.300000012      0.950440645      0.931320965      0.369974345       1.39004360E-05  0.315878749       1.01123005E-05
  0.868686855      0.300000012      0.950323284      0.931159794      0.370084941       1.10686296E-05  0.315981001       9.93348658E-06
  0.858585835      0.300000012      0.950201094      0.930991948      0.370208532       7.49822220E-06  0.316094697       9.65036452E-06
  0.848484874      0.300000012      0.950074732      0.930818498      0.370345682       3.14520298E-06  0.316220224       9.48458910E-06
  0.838383853      0.300000012      0.949944794      0.930640280      0.370496899      -2.03918944E-06  0.316358000       9.50507820E-06
  0.828282833      0.300000012      0.949811995      0.930457890      0.370662779      -8.13214865E-06  0.316508532       9.19960439E-06
  0.818181813      0.300000012      0.949676991      0.930272520      0.370844245      -1.51130625E-05  0.316672504       8.99471343E-06
  0.808080792      0.300000012      0.949539959      0.930084765      0.371042281      -2.30159621E-05  0.316850752       9.14745033E-06
  0.797979772      0.300000012      0.949401438      0.929894865      0.371257752      -3.18262355E-05  0.317043990       9.20705497E-06
  0.787878811      0.300000012      0.949261725      0.929703474      0.371491998      -4.16605581E-05  0.317253321       9.41008329E-06
  0.777777791      0.300000012      0.949121475      0.929510832      0.371746123      -5.23732269E-05  0.317479789       9.05804336E-06
  0.767676771      0.300000012      0.948980391      0.929317296      0.372021317      -6.39188511E-05  0.317724288       8.93324614E-06
  0.757575750      0.300000012      0.948838413      0.929122686      0.372318834      -7.63669741E-05  0.317987889       9.02265310E-06
  0.747474730      0.300000012      0.948695481      0.928926885      0.372640043      -8.94694022E-05  0.318271786       9.13068652E-06
  0.737373710      0.300000012      0.948551953      0.928729832      0.372985631      -1.03107435E-04  0.318576694       8.76747072E-06
  0.727272749      0.300000012      0.948407173      0.928531408      0.373356551      -1.17211697E-04  0.318903238       8.83638859E-06
  0.717171729      0.300000012      0.948261261      0.928331196      0.373753160      -1.31577093E-04  0.319251865       8.58120620E-06
  0.707070708      0.300000012      0.948113859      0.928129017      0.374175698      -1.45997707E-04  0.319622725       8.41915607E-06
  0.696969688      0.300000012      0.947964966      0.927924752      0.374623716      -1.60172305E-04  0.320015550       8.23102891E-06
  0.686868668      0.300000012      0.947814703      0.927718759      0.375096202      -1.73784312E-04  0.320429355       8.12113285E-06
  0.676767647      0.300000012      0.947663248      0.927511036      0.375591666      -1.86515099E-04  0.320862830       7.91996717E-06
  0.666666687      0.300000012      0.947511137      0.927302480      0.376107275      -1.97940462E-04  0.321313679       7.75046647E-06
  0.656565666      0.300000012      0.947359025      0.927094221      0.376639545      -2.07644931E-04  0.321778744       7.89016485E-06
  0.646464646      0.300000012      0.947208166      0.926887274      0.377183795      -2.15108768E-04  0.322254002       7.65547156E-06
  0.636363626      0.300000012      0.947059810      0.926683962      0.377734184      -2.19829511E-04  0.322734386       7.56606460E-06
  0.626262605      0.300000012      0.946915627      0.926486552      0.378283381      -2.21247494E-04  0.323213428       7.67409801E-06
  0.616161644      0.300000012      0.946778119      0.926297963      0.378822565      -2.18779722E-04  0.323683560       7.39470124E-06
  0.606060624      0.300000012      0.946649969      0.926122308      0.379341662      -2.11771199E-04  0.324135900       7.26059079E-06
  0.595959604      0.300000012      0.946533680      0.925962746      0.379829139      -1.99710092E-04  0.324560463       6.91786408E-06
  0.585858583      0.300000012      0.946432531      0.925823987      0.380272537      -1.82539094E-04  0.324946284       6.72601163E-06
  0.575757563      0.300000012      0.946349323      0.925709844      0.380659103      -1.60319221E-04  0.325282365       6.48200512E-06
  0.565656543      0.300000012      0.946286678      0.925624311      0.380976349      -1.33341528E-04  0.325557709       6.75953925E-06
  0.555555582      0.300000012      0.946247578      0.925570607      0.381213039      -1.02512764E-04  0.325762749       6.59190118E-06
  0.545454562      0.300000012      0.946233571      0.925551355      0.381359607      -6.88646251E-05  0.325888932       6.55278563E-06
  0.535353541      0.300000012      0.946245849      0.925568342      0.381408542      -3.36754820E-05  0.325929850       6.71856105E-06
  0.525252521      0.300000012      0.946285307      0.925622284      0.381355703       1.66322855E-06  0.325882018       6.61425292E-06
  0.515151501      0.300000012      0.946352482      0.925713956      0.381199032       3.63626095E-05  0.325743556       6.24172390E-06
  0.505050480      0.300000012      0.946447134      0.925843537      0.380938590       7.00855817E-05  0.325514495       6.21192157E-06
  0.494949490      0.300000012      0.946569443      0.926011145      0.380575508       1.03041377E-04  0.325195849       6.31250441E-06
  0.484848499      0.300000012      0.946718693      0.926215708      0.380113065       1.34820206E-04  0.324790388       6.49690628E-06
  0.474747479      0.300000012      0.946893692      0.926455438      0.379556686       1.65155405E-04  0.324303061       6.52298331E-06
  0.464646459      0.300000012      0.947093666      0.926729143      0.378912151       1.94663473E-04  0.323738724       6.23054802E-06
  0.454545468      0.300000012      0.947317183      0.927035153      0.378185242       2.23486350E-04  0.323102444       6.00516796E-06
  0.444444448      0.300000012      0.947562516      0.927370846      0.377382606       2.50365149E-04  0.322400063       5.54695725E-06
  0.434343427      0.300000012      0.947826862      0.927732766      0.376513481       2.73600395E-04  0.321639746       5.23962080E-06
  0.424242437      0.300000012      0.948107064      0.928116441      0.375589281       2.91843171E-04  0.320831299       4.88944352E-06
  0.414141417      0.300000012      0.948399961      0.928517640      0.374623030       3.04513494E-04  0.319986224       4.62494791E-06
  0.404040396      0.300000012      0.948702633      0.928932309      0.373627782       3.11416050E-04  0.319115818       4.40888107E-06
  0.393939406      0.300000012      0.949012280      0.929356396      0.372615814       3.12989432E-04  0.318230778       3.94880772E-06
  0.383838385      0.300000012      0.949326277      0.929786742      0.371598631       3.09626776E-04  0.317341089       3.75136733E-06
  0.373737365      0.300000012      0.949642718      0.930220544      0.370586127       3.02036118E-04  0.316455334       3.65823507E-06
  0.363636374      0.300000012      0.949959934      0.930655241      0.369586974       2.90862867E-04  0.315581113       3.24472785E-06
  0.353535354      0.300000012      0.950276077      0.931088686      0.368608445       2.76852457E-04  0.314724654       3.09199095E-06
  0.343434334      0.300000012      0.950590193      0.931519568      0.367655873       2.60767090E-04  0.313890606       3.08081508E-06
  0.333333343      0.300000012      0.950901687      0.931946337      0.366733700       2.43195071E-04  0.313082814       2.42516398E-06
  0.323232323      0.300000012      0.951209247      0.932367861      0.365845144       2.24570467E-04  0.312304109       1.86823308E-06
  0.313131303      0.300000012      0.951512337      0.932783425      0.364992470       2.05367221E-04  0.311556458       1.45472586E-06
  0.303030312      0.300000012      0.951810598      0.933192074      0.364177287       1.85924859E-04  0.310841262       6.59376383E-07
  0.292929292      0.300000012      0.952102900      0.933593333      0.363400638       1.66573242E-04  0.310159296       7.04079866E-07
  0.282828271      0.300000012      0.952389061      0.933986127      0.362662762       1.47575643E-04  0.309510916       5.92321157E-07
  0.272727281      0.300000012      0.952668726      0.934370160      0.361963749       1.29059190E-04  0.308896214       6.29574060E-07
  0.262626261      0.300000012      0.952941239      0.934744596      0.361303240       1.11295441E-04  0.308314860       9.01520252E-07
  0.252525240      0.300000012      0.953206360      0.935108602      0.360680938       9.42838742E-05  0.307766736       8.34465027E-07
  0.242424250      0.300000012      0.953463495      0.935461640      0.360096186       7.81780545E-05  0.307251155       6.55651093E-07
  0.232323229      0.300000012      0.953711808      0.935802579      0.359548390       6.30306822E-05  0.306767821       5.01051545E-07
  0.222222224      0.300000012      0.953950703      0.936130762      0.359036803       4.89178274E-05  0.306315988       4.76837158E-07
  0.212121218      0.300000012      0.954179585      0.936445296      0.358560562       3.58539983E-05  0.305894971       5.34579158E-07
  0.202020198      0.300000012      0.954397917      0.936744988      0.358118922       2.38984176E-05  0.305504292       2.47731805E-07
  0.191919193      0.300000012      0.954604685      0.937029123      0.357711047       1.30642229E-05  0.305143118       2.55182385E-07
  0.181818187      0.300000012      0.954799175      0.937296212      0.357335925       3.36692528E-06  0.304810733      -5.58793545E-09
  0.171717167      0.300000012      0.954980791      0.937545538      0.356992543      -5.15591273E-06  0.304506302      -3.11061740E-07
  0.161616161      0.300000012      0.955148280      0.937775910      0.356680006      -1.24364715E-05  0.304228991      -7.26431608E-08
  0.151515156      0.300000012      0.955301344      0.937986434      0.356397092      -1.86102043E-05  0.303977937       5.58793545E-08
  0.141414136      0.300000012      0.955439091      0.938175917      0.356142789      -2.35950029E-05  0.303752244       1.65775418E-07
  0.131313130      0.300000012      0.955561101      0.938343644      0.355915844      -2.75042294E-05  0.303550959       1.26659870E-07
  0.121212125      0.300000012      0.955666542      0.938488424      0.355715424      -3.03139150E-05  0.303373337      -6.33299351E-08
  0.111111112      0.300000012      0.955754936      0.938610017      0.355540663      -3.22553024E-05  0.303218663       3.35276127E-08
  0.101010099      0.300000012      0.955825806      0.938707471      0.355390728      -3.33591415E-05  0.303086311       5.77419996E-08
   9.09090936E-02  0.300000012      0.955878675      0.938780367      0.355265170      -3.38302889E-05  0.302975833       2.62632966E-07
   8.08080807E-02  0.300000012      0.955913484      0.938828290      0.355163336      -3.37559068E-05  0.302886784       3.22237611E-07
   7.07070678E-02  0.300000012      0.955930173      0.938851178      0.355085224      -3.32799355E-05  0.302819133       2.55182385E-07
   6.06060624E-02  0.300000012      0.955928802      0.938849390      0.355030626      -3.25368856E-05  0.302772641       3.35276127E-07
   5.05050495E-02  0.300000012      0.955909550      0.938822806      0.354999185      -3.15492689E-05  0.302747041       2.77534127E-07
   4.04040404E-02  0.300000012      0.955872774      0.938772023      0.354990572      -3.03293855E-05  0.302742094      -7.45058060E-09
   3.03030312E-02  0.300000012      0.955819130      0.938698232      0.355004072      -2.88531173E-05  0.302756995       0.00000000    
   2.02020202E-02  0.300000012      0.955749512      0.938602567      0.355038166      -2.67797495E-05  0.302790493       6.51925802E-08
   1.01010101E-02  0.300000012      0.955665588      0.938487172      0.355089933      -2.33709125E-05  0.302839935       4.84287739E-08
   0.00000000      0.289655179      0.955591738      0.938385725      0.355148494      -2.39623587E-05  0.302894562       1.21071935E-07
   0.00000000      0.279310346      0.955586016      0.938377917      0.355171561      -3.26592817E-05  0.302914560       2.17929482E-07
   0.00000000      0.268965513      0.955577195      0.938365757      0.355206251      -4.15127033E-05  0.302944750       1.34110451E-07
   0.00000000      0.258620679      0.955565393      0.938349485      0.355252475      -5.02269540E-05  0.302984893       1.02445483E-07
   0.00000000      0.248275861      0.955550432      0.938328862      0.355310172      -5.86784190E-05  0.303035051       5.77419996E-08
   0.00000000      0.237931028      0.955532491      0.938304245      0.355378807      -6.69566871E-05  0.303094745       9.87201929E-08
   0.00000000      0.227586210      0.955511868      0.938275874      0.355458111      -7.50552936E-05  0.303163677       4.09781933E-08
   0.00000000      0.217241377      0.955488443      0.938243687      0.355547786      -8.30026402E-05  0.303241670       8.00937414E-08
   0.00000000      0.206896558      0.955462277      0.938207746      0.355647326      -9.07599169E-05  0.303328216       1.06170774E-07
   0.00000000      0.196551725      0.955433607      0.938168287      0.355756611      -9.84295912E-05  0.303423256       1.02445483E-07
   0.00000000      0.186206892      0.955402672      0.938125730      0.355875373      -1.06175030E-04  0.303526551       6.33299351E-08
   0.00000000      0.175862074      0.955369055      0.938079596      0.356003374      -1.14004506E-04  0.303637832       1.02445483E-07
   0.00000000      0.165517241      0.955333233      0.938030183      0.356140494      -1.22101381E-04  0.303757071      -7.26431608E-08
   0.00000000      0.155172408      0.955294669      0.937977254      0.356287032      -1.30596338E-04  0.303884476       6.33299351E-08
   0.00000000      0.144827589      0.955253839      0.937921166      0.356442928      -1.39635711E-04  0.304020077       1.02445483E-07
   0.00000000      0.134482756      0.955210388      0.937861383      0.356608778      -1.49467742E-04  0.304164290       1.67638063E-08
   0.00000000      0.124137931      0.955164135      0.937797785      0.356785148      -1.60252122E-04  0.304317683      -5.58793545E-08
   0.00000000      0.113793105      0.955115020      0.937730372      0.356972694      -1.72224187E-04  0.304480791       5.40167093E-08
   0.00000000      0.103448279      0.955062926      0.937658727      0.357172787      -1.85675861E-04  0.304654807       2.04890966E-08
   0.00000000       9.31034461E-02  0.955007136      0.937582076      0.357386678      -2.00972107E-04  0.304840803       8.19563866E-08
   0.00000000       8.27586204E-02  0.954947472      0.937500060      0.357616246      -2.18297559E-04  0.305040419       5.21540642E-08
   0.00000000       7.24137947E-02  0.954883397      0.937411904      0.357863575      -2.37945482E-04  0.305255502      -7.26431608E-08
   0.00000000       6.20689653E-02  0.954814136      0.937316716      0.358131170      -2.60069442E-04  0.305488229       1.86264515E-09
   0.00000000       5.17241396E-02  0.954739094      0.937213719      0.358422428      -2.84445443E-04  0.305741459       9.68575478E-08
   0.00000000       4.13793102E-02  0.954657495      0.937101662      0.358740449      -3.10131611E-04  0.306017935       2.32830644E-07
   0.00000000       3.10344826E-02  0.954568624      0.936979532      0.359089673      -3.34536744E-04  0.306321621       1.69500709E-07
   0.00000000       2.06896551E-02  0.954471886      0.936846495      0.359475076      -3.51154478E-04  0.306656599       9.49949026E-08
   0.00000000       1.03448275E-02  0.954367399      0.936702967      0.359902442      -3.44011263E-04  0.307027936       1.67638063E-07
   1.01942774E-02  -1.06002917E-05  0.954325438      0.936645329      0.360050172      -5.45711489E-04  0.307156801       1.24797225E-07
   2.03885511E-02  -4.05888240E-05  0.954335272      0.936658800      0.359968424      -1.14147703E-03  0.307087600       1.54599547E-07
   3.05827484E-02  -8.74972393E-05  0.954393566      0.936739087      0.359751552      -1.69057131E-03  0.306900680       3.01748514E-07
   4.07768898E-02  -1.49138228E-04  0.954483926      0.936863244      0.359443247      -2.17637792E-03  0.306634098       3.39001417E-07
   5.09709269E-02  -2.23550553E-04  0.954598665      0.937021196      0.359068006      -2.60025030E-03  0.306309015       5.75557351E-07
   6.11648858E-02  -3.08956922E-04  0.954733551      0.937206805      0.358640939      -2.96565122E-03  0.305938423       8.38190317E-07
   7.13587478E-02  -4.03728453E-04  0.954885662      0.937415898      0.358172029      -3.27618141E-03  0.305531025       9.46223736E-07
   8.15525427E-02  -5.06357115E-04  0.955053031      0.937646151      0.357668340      -3.53522156E-03  0.305092812       1.13621354E-06
   9.17462707E-02  -6.15430705E-04  0.955233991      0.937894940      0.357134581      -3.74536961E-03  0.304627776       1.17160380E-06
  0.101939946      -7.29613879E-04  0.955427587      0.938161135      0.356574118      -3.90892895E-03  0.304138929       1.28149986E-06
  0.112133577      -8.47629446E-04  0.955632746      0.938443303      0.355988801      -4.02752869E-03  0.303627849       1.41002238E-06
  0.122327171      -9.68243345E-04  0.955848873      0.938740492      0.355379641      -4.10242751E-03  0.303095371       1.44913793E-06
  0.132520750      -1.09024998E-03  0.956075132      0.939051747      0.354747057      -4.13443986E-03  0.302541882       1.55717134E-06
  0.142714337      -1.21245917E-03  0.956311285      0.939376652      0.354090422      -4.12390241E-03  0.301966906       1.74529850E-06
  0.152907923      -1.33368257E-03  0.956557095      0.939714849      0.353408694      -4.07073228E-03  0.301369578       1.91666186E-06
  0.163101539      -1.45272142E-03  0.956812322      0.940065980      0.352700293      -3.97455879E-03  0.300748557       1.97067857E-06
  0.173295200      -1.56835280E-03  0.957076550      0.940429509      0.351963133      -3.83444084E-03  0.300102204       2.06008554E-06
  0.183488905      -1.67931605E-03  0.957349598      0.940805554      0.351194680      -3.64905363E-03  0.299428195       2.47173011E-06
  0.193682685      -1.78429752E-03  0.957631767      0.941194117      0.350391895      -3.41656036E-03  0.298724145       2.87219882E-06
  0.203876525      -1.88191328E-03  0.957923114      0.941595197      0.349551171      -3.13457474E-03  0.297987074       3.01562250E-06
  0.214070454      -1.97069068E-03  0.958223999      0.942009568      0.348668247      -2.80009606E-03  0.297213286       3.33786011E-06
  0.224264458      -2.04904471E-03  0.958534896      0.942437768      0.347738117      -2.40920042E-03  0.296398729       3.61725688E-06
  0.234458551      -2.11525219E-03  0.958856106      0.942880750      0.346755266      -1.95730384E-03  0.295538634       4.47221100E-06
  0.244652733      -2.16741930E-03  0.959189236      0.943339765      0.345712900      -1.43859012E-03  0.294627577       4.87267971E-06
  0.254846990      -2.20344099E-03  0.959535182      0.943816304      0.344602674      -8.45859991E-04  0.293658555       5.12413681E-06
  0.265041292      -2.22095218E-03  0.959895313      0.944312513      0.343414932      -1.70262574E-04  0.292623580       5.34206629E-06
  0.275235593      -2.21726228E-03  0.960271358      0.944830954      0.342137843       5.99137857E-04  0.291512847       5.89527190E-06
  0.285429865      -2.18927371E-03  0.960665882      0.945374787      0.340756983       1.47603860E-03  0.290314674       6.22309744E-06
  0.295624018      -2.13337177E-03  0.961081803      0.945948660      0.339254558       2.47789244E-03  0.289014518       7.08177686E-06
  0.305817962      -2.04527588E-03  0.961522877      0.946557641      0.337608695       3.62688070E-03  0.287594736       8.29622149E-06
  0.316011488      -1.91983546E-03  0.961993992      0.947208345      0.335791826       4.95223328E-03  0.286033392       9.72300768E-06
  0.326204360      -1.75073801E-03  0.962501526      0.947909415      0.333768904       6.49261707E-03  0.284302920       1.11293048E-05
  0.336396307      -1.53008103E-03  0.963052750      0.948671877      0.331495672       8.30076449E-03  0.282368988       1.36569142E-05
  0.346586645      -1.24772848E-03  0.963658094      0.949509382      0.328914046       1.04512228E-02  0.280187905       1.63409859E-05
  0.356774658      -8.90274358E-04  0.964330196      0.950439990      0.325948060       1.30529059E-02  0.277704448       1.98613852E-05
  0.366958946      -4.39326104E-04  0.965086520      0.951488137      0.322496742       1.62930693E-02  0.274850398       2.45086849E-05
  0.377137065       1.33766516E-04  0.965966225      0.952710748      0.318471938       2.10128743E-02  0.271613181       3.30694020E-05
  0.387299746       9.32033930E-04  0.966840923      0.953930616      0.314530939       2.81402096E-02  0.268688858       4.54448164E-05
  0.397434235       2.03104783E-03  0.967444360      0.954780817      0.311415136       3.72584201E-02  0.266822904       6.28754497E-05
  0.407523632       3.48527054E-03  0.967671454      0.955119371      0.309428602       4.82528396E-02  0.266409010       8.88090581E-05
  0.417543113       5.36030158E-03  0.967404544      0.954791486      0.309005111       6.15995117E-02  0.268048704       1.31627545E-04
  0.427456856       7.73026003E-03  0.966367900      0.953433096      0.311107308       7.79627934E-02  0.272896498       2.08869576E-04
  0.437217921       1.06651187E-02  0.964042902      0.950361311      0.317566335       9.79458168E-02  0.282882750       3.54267657E-04
  0.446780443       1.41935814E-02  0.959497035      0.944346011      0.331617147      0.121241294      0.300796062       6.21844083E-04
  0.456144422       1.82216074E-02  0.951310158      0.933493733      0.358023643      0.144260138      0.329323500       1.06013380E-03
  0.465438336       2.24102195E-02  0.938306570      0.916219354      0.400112122      0.156705931      0.367518455       1.65052712E-03
  0.474928796       2.61229333E-02  0.922134101      0.894746840      0.451089829      0.143887043      0.406243712       2.27601454E-03
  0.484786808       2.86871437E-02  0.908389747      0.876633704      0.492207110      0.101747774      0.432411522       2.84842774E-03
  0.494905144       2.98680626E-02  0.901609600      0.868019998      0.509930432       4.62500937E-02  0.441032261       3.46258283E-03
  0.505094886       2.98680626E-02  0.900664508      0.867383897      0.507136405      -7.90087134E-03  0.436806738       4.19779122E-03
  0.515213192       2.86871418E-02  0.902235806      0.870492816      0.488546401      -6.24264181E-02  0.423775762       5.33533096E-03
  0.525071204       2.61229314E-02  0.906328857      0.877422929      0.453636527     -0.113797903      0.401730269       6.92810863E-03
  0.534561634       2.24102195E-02  0.914582431      0.889964342      0.408278584     -0.144855544      0.371162236       8.42889771E-03
  0.543855608       1.82216056E-02  0.926058114      0.906522095      0.364262849     -0.146353960      0.335333496       9.40574892E-03
  0.553219557       1.41935805E-02  0.937039137      0.922090292      0.329818845     -0.127424076      0.301240474       9.93015431E-03
  0.562782109       1.06651178E-02  0.944846928      0.933106542      0.306915909     -0.103035942      0.275334299       1.01893637E-02
  0.572543144       7.73025956E-03  0.949485004      0.939645410      0.293469310      -8.12513530E-02  0.258701444       1.03170378E-02
  0.582456887       5.36030112E-03  0.951986730      0.943182051      0.286410093      -6.37172163E-02  0.249133185       1.03899064E-02
  0.592476368       3.48527008E-03  0.953222573      0.944934011      0.283388227      -4.98269014E-02  0.244244933       1.04294112E-02