 title = "grid"
                                   variables = "x","y","rho","P","u","v","M","S"
 zone n=        3000  e =        5742  et=quadrilateral, f=fepoint
   0.00000000       0.00000000      0.954634547      0.937070012      0.358915418      -3.26926733E-04  0.306168735       5.58793545E-08
   1.00000000       0.00000000      0.944337726      0.932229280      0.323511928       5.80784457E-04  0.275187850       1.00035015E-02
   1.00000000      0.300000012      0.951335549      0.932550192      0.369838268       2.01625462E-05  0.315702915       1.15055591E-05
   0.00000000      0.300000012      0.955382228      0.938097596      0.355657369       1.40736920E-05  0.303341895      -5.58793545E-09
   1.00000000       1.03448275E-02  0.945878923      0.932295859      0.330275387       8.89125513E-04  0.281160742       7.79192895E-03
   1.00000000       2.06896551E-02  0.947636843      0.932337880      0.338609308       1.16594764E-03  0.288517207       5.23749553E-03
   1.00000000       3.10344826E-02  0.948804915      0.932368815      0.345002919       1.33178814E-03  0.294141710       3.54606658E-03
   1.00000000       4.13793102E-02  0.949595928      0.932391763      0.350209355       1.42273330E-03  0.298701584       2.40398385E-03
   1.00000000       5.17241396E-02  0.950134456      0.932409823      0.354486018       1.46156189E-03  0.302432120       1.62962079E-03
   1.00000000       6.20689653E-02  0.950500906      0.932424486      0.357972592       1.46358646E-03  0.305463165       1.10555626E-03
   1.00000000       7.24137947E-02  0.950749636      0.932436764      0.360777289       1.43918837E-03  0.307894558       7.52419233E-04
   1.00000000       8.27586204E-02  0.950918019      0.932447553      0.363001227       1.39598420E-03  0.309818000       5.15997410E-04
   1.00000000       9.31034461E-02  0.951032937      0.932457209      0.364740312       1.33953814E-03  0.311319262       3.57219949E-04
   1.00000000      0.103448279      0.951111615      0.932466090      0.366077960       1.27394125E-03  0.312472224       2.50935555E-04
   1.00000000      0.113793105      0.951166153      0.932474375      0.367091447       1.20221905E-03  0.313344657       1.79547817E-04
   1.00000000      0.124137931      0.951204956      0.932482064      0.367849886       1.12681487E-03  0.313996941       1.30623579E-04
   1.00000000      0.134482756      0.951233208      0.932489634      0.368410885       1.04933733E-03  0.314479023       9.71555710E-05
   1.00000000      0.144827589      0.951254368      0.932496846      0.368821979       9.71317233E-04  0.314832032       7.38017261E-05
   1.00000000      0.155172408      0.951270640      0.932503939      0.369120926       8.93567107E-04  0.315088600       5.73936850E-05
   1.00000000      0.165517241      0.951283455      0.932510495      0.369337052       8.16915650E-04  0.315273911       4.56459820E-05
   1.00000000      0.175862074      0.951293945      0.932516992      0.369492918       7.41778989E-04  0.315407455       3.71541828E-05
   1.00000000      0.186206892      0.951303005      0.932523191      0.369605124       6.68533903E-04  0.315503567       3.04076821E-05
   1.00000000      0.196551725      0.951310635      0.932528913      0.369685650       5.97397622E-04  0.315572530       2.53152102E-05
   1.00000000      0.206896558      0.951317012      0.932534337      0.369743079       5.28353965E-04  0.315621585       2.17966735E-05
   1.00000000      0.217241377      0.951322496      0.932539225      0.369783401       4.61457559E-04  0.315656006       1.89356506E-05
   1.00000000      0.227586210      0.951327324      0.932543874      0.369810879       3.96785588E-04  0.315679431       1.68569386E-05
   1.00000000      0.237931028      0.951331198      0.932547688      0.369828880       3.34073236E-04  0.315694720       1.52178109E-05
   1.00000000      0.248275861      0.951334536      0.932550967      0.369838864       2.73341808E-04  0.315703213       1.38133764E-05
   1.00000000      0.258620679      0.951337516      0.932553709      0.369842559       2.14477070E-04  0.315706372       1.23810023E-05
   1.00000000      0.268965513      0.951339543      0.932555914      0.369841188       1.57337199E-04  0.315705150       1.17775053E-05
   1.00000000      0.279310346      0.951340735      0.932557166      0.369835049       1.02009326E-04  0.315699875       1.13230199E-05
   1.00000000      0.289655179      0.951341093      0.932557702      0.369827032       4.84142838E-05  0.315692961       1.14347786E-05
  0.989898980      0.300000012      0.951362133      0.932586610      0.369798720       3.10016148E-05  0.315667391       1.14645809E-05
  0.979797959      0.300000012      0.951424658      0.932672143      0.369722068       3.14323734E-05  0.315597862       1.11274421E-05
  0.969696999      0.300000012      0.951485455      0.932755709      0.369645536       3.14538083E-05  0.315528452       1.12969428E-05
  0.959595978      0.300000012      0.951543868      0.932835698      0.369571000       3.11878975E-05  0.315461010       1.11293048E-05
  0.949494958      0.300000012      0.951599061      0.932911217      0.369500309       3.07308437E-05  0.315397054       1.08368695E-05
  0.939393938      0.300000012      0.951649964      0.932980835      0.369434953       2.99804942E-05  0.315337926       1.06096268E-05
  0.929292917      0.300000012      0.951695740      0.933043301      0.369376421       2.89509026E-05  0.315285027       1.02166086E-05
  0.919191897      0.300000012      0.951735258      0.933097422      0.369326711       2.76377214E-05  0.315239996       1.00824982E-05
  0.909090936      0.300000012      0.951767743      0.933141768      0.369287252       2.60531287E-05  0.315204203       9.79378819E-06
  0.898989916      0.300000012      0.951792300      0.933175385      0.369259834       2.40610116E-05  0.315179199       9.68575478E-06
  0.888888896      0.300000012      0.951808035      0.933196843      0.369246244       2.16172266E-05  0.315166563       9.50880349E-06
  0.878787875      0.300000012      0.951814234      0.933205187      0.369248182       1.88188242E-05  0.315167814       9.33930278E-06
  0.868686855      0.300000012      0.951810181      0.933199525      0.369267523       1.55154848E-05  0.315184623       9.29459929E-06
  0.858585835      0.300000012      0.951795280      0.933178961      0.369305789       1.16772962E-05  0.315218270       9.17352736E-06
  0.848484874      0.300000012      0.951768577      0.933142424      0.369365066       7.24737902E-06  0.315270633       9.25920904E-06
  0.838383853      0.300000012      0.951729953      0.933089554      0.369446814       2.29311058E-06  0.315342963       9.45478678E-06
  0.828282833      0.300000012      0.951679051      0.933019578      0.369552910      -3.36402218E-06  0.315436870       9.31881368E-06
  0.818181813      0.300000012      0.951615512      0.932932317      0.369685054      -9.61759542E-06  0.315553904       9.28342342E-06
  0.808080792      0.300000012      0.951539040      0.932827294      0.369844228      -1.65312849E-05  0.315694869       9.20146704E-06
  0.797979772      0.300000012      0.951449811      0.932704687      0.370032102      -2.40552399E-05  0.315861195       9.00216401E-06
  0.787878811      0.300000012      0.951347411      0.932564199      0.370249897      -3.22186352E-05  0.316053897       9.07294452E-06
  0.777777791      0.300000012      0.951232612      0.932406366      0.370498449      -4.09671884E-05  0.316273719       8.75815749E-06
  0.767676771      0.300000012      0.951105356      0.932231545      0.370778799      -5.02896255E-05  0.316521555       8.58865678E-06
  0.757575750      0.300000012      0.950965703      0.932039976      0.371091455      -6.00987660E-05  0.316797733       8.63894820E-06
  0.747474730      0.300000012      0.950814664      0.931832612      0.371436894      -7.04293561E-05  0.317102730       8.49924982E-06
  0.737373710      0.300000012      0.950652421      0.931610346      0.371815175      -8.10000201E-05  0.317436486       8.80472362E-06
  0.727272749      0.300000012      0.950480223      0.931373894      0.372226268      -9.18798032E-05  0.317799002       8.58120620E-06
  0.717171729      0.300000012      0.950298488      0.931124628      0.372669786      -1.02881095E-04  0.318189859       8.68737698E-06
  0.707070708      0.300000012      0.950108230      0.930863500      0.373144805      -1.13837195E-04  0.318608224       8.46199691E-06
  0.696969688      0.300000012      0.949910641      0.930592358      0.373650134      -1.24471931E-04  0.319052935       8.38376582E-06
  0.686868668      0.300000012      0.949706793      0.930312574      0.374183863      -1.34499394E-04  0.319522470       8.12672079E-06
  0.676767647      0.300000012      0.949498117      0.930026174      0.374743193      -1.43569661E-04  0.320014209       7.84918666E-06
  0.666666687      0.300000012      0.949286044      0.929735124      0.375324696      -1.51334170E-04  0.320525169       7.63870776E-06
  0.656565666      0.300000012      0.949072182      0.929441988      0.375923753      -1.57249800E-04  0.321051180       7.67037272E-06
  0.646464646      0.300000012      0.948858976      0.929149389      0.376534373      -1.60802185E-04  0.321587145       7.41519034E-06
  0.636363626      0.300000012      0.948648512      0.928860784      0.377149582      -1.61407908E-04  0.322126925       7.25686550E-06
  0.626262605      0.300000012      0.948443234      0.928579152      0.377760798      -1.58455805E-04  0.322662979       7.01844692E-06
  0.616161644      0.300000012      0.948246300      0.928308785      0.378357857      -1.51355605E-04  0.323186427       6.55837357E-06
  0.606060624      0.300000012      0.948060334      0.928053916      0.378929496      -1.39474068E-04  0.323687404       6.51925802E-06
  0.595959604      0.300000012      0.947888613      0.927818835      0.379463106      -1.22454352E-04  0.324154913       6.83218241E-06
  0.585858583      0.300000012      0.947734654      0.927608073      0.379945397      -1.00163241E-04  0.324577391       6.99609518E-06
  0.575757563      0.300000012      0.947601616      0.927425802      0.380363047      -7.28852610E-05  0.324943304       7.07805157E-06
  0.565656543      0.300000012      0.947492421      0.927275896      0.380703270      -4.11053697E-05  0.325241506       6.76698983E-06
  0.555555582      0.300000012      0.947409093      0.927161455      0.380955070      -5.80892674E-06  0.325462401       6.42612576E-06
  0.545454562      0.300000012      0.947352886      0.927084267      0.381109655       3.16089390E-05  0.325598389       6.21750951E-06
  0.535353541      0.300000012      0.947324455      0.927045405      0.381161094       6.98044969E-05  0.325644255       6.35907054E-06
  0.525252521      0.300000012      0.947323740      0.927044511      0.381107181       1.07487242E-04  0.325598240       6.40004873E-06
  0.515151501      0.300000012      0.947350442      0.927081168      0.380947828       1.44308433E-04  0.325460255       6.53043389E-06
  0.505050480      0.300000012      0.947404087      0.927154779      0.380684346       1.80482486E-04  0.325231463       6.66454434E-06
  0.494949490      0.300000012      0.947484255      0.927264512      0.380318910       2.16299595E-04  0.324913800       6.56209886E-06
  0.484848499      0.300000012      0.947589219      0.927408159      0.379855603       2.51322985E-04  0.324510843       6.33485615E-06
  0.474747479      0.300000012      0.947717011      0.927582860      0.379301012       2.85465852E-04  0.324028403       5.93438745E-06
  0.464646459      0.300000012      0.947865486      0.927786171      0.378661543       3.19336192E-04  0.323472023       5.73880970E-06
  0.454545468      0.300000012      0.948032856      0.928015530      0.377942890       3.53183394E-04  0.322846740       5.75743616E-06
  0.444444448      0.300000012      0.948216617      0.928267419      0.377151757       3.85351450E-04  0.322158456       5.80400229E-06
  0.434343427      0.300000012      0.948413312      0.928536713      0.376298279       4.13515780E-04  0.321416199       5.44451177E-06
  0.424242437      0.300000012      0.948618889      0.928818464      0.375395119       4.36030765E-04  0.320630878       5.45196235E-06
  0.414141417      0.300000012      0.948829651      0.929107249      0.374456257       4.52272012E-04  0.319814831       5.27128577E-06
  0.404040396      0.300000012      0.949042082      0.929398298      0.373495817       4.62144293E-04  0.318980306       5.08315861E-06
  0.393939406      0.300000012      0.949253380      0.929687560      0.372526765       4.66040423E-04  0.318138599       4.58769500E-06
  0.383838385      0.300000012      0.949460983      0.929971755      0.371560812       4.64502955E-04  0.317299873       4.07919288E-06
  0.373737365      0.300000012      0.949662864      0.930247903      0.370608032       4.58210794E-04  0.316472888       3.39560211E-06
  0.363636374      0.300000012      0.949857414      0.930514276      0.369677067       4.47895145E-04  0.315665007       2.93552876E-06
  0.353535354      0.300000012      0.950043917      0.930769503      0.368774712       4.34288813E-04  0.314882249       2.26311386E-06
  0.343434334      0.300000012      0.950222015      0.931013346      0.367906213       4.18200449E-04  0.314128935       1.81980431E-06
  0.333333343      0.300000012      0.950391471      0.931245625      0.367075235       4.00234450E-04  0.313408285       1.59256160E-06
  0.323232323      0.300000012      0.950552762      0.931466818      0.366284072       3.80933780E-04  0.312722176       1.54599547E-06
  0.313131303      0.300000012      0.950706303      0.931677639      0.365534246       3.60673992E-04  0.312071860       1.71177089E-06
  0.303030312      0.300000012      0.950853288      0.931879282      0.364826202       3.39802355E-04  0.311457723       1.66147947E-06
  0.292929292      0.300000012      0.950994551      0.932072878      0.364159882       3.18686012E-04  0.310879707       1.41561031E-06
  0.282828271      0.300000012      0.951131165      0.932259977      0.363534600       2.97548133E-04  0.310337007       1.07660890E-06
  0.272727281      0.300000012      0.951264143      0.932442129      0.362948924       2.76603678E-04  0.309828430       7.37607479E-07
  0.262626261      0.300000012      0.951394260      0.932620823      0.362401456       2.56096449E-04  0.309352577       8.77305865E-07
  0.252525240      0.300000012      0.951523244      0.932797670      0.361890405       2.36099717E-04  0.308907986       7.09667802E-07
  0.242424250      0.300000012      0.951651990      0.932973981      0.361413360       2.16860572E-04  0.308492482       2.71946192E-07
  0.232323229      0.300000012      0.951781273      0.933151305      0.360968351       1.98391746E-04  0.308104277       9.12696123E-08
  0.222222224      0.300000012      0.951912105      0.933330834      0.360552967       1.80834497E-04  0.307741284       8.19563866E-08
  0.212121218      0.300000012      0.952045441      0.933513761      0.360164642       1.64283745E-04  0.307401210      -9.31322575E-08
  0.202020198      0.300000012      0.952181756      0.933700860      0.359801143       1.48840016E-04  0.307082146      -9.31322575E-08
  0.191919193      0.300000012      0.952321827      0.933893263      0.359460145       1.34397764E-04  0.306782067       3.35276127E-08
  0.181818187      0.300000012      0.952465951      0.934091210      0.359139293       1.21129393E-04  0.306498975       9.12696123E-08
  0.171717167      0.300000012      0.952614307      0.934295237      0.358836442       1.08901928E-04  0.306230903       4.54485416E-07
  0.161616161      0.300000012      0.952767432      0.934505284      0.358549744       9.78552052E-05  0.305976450       2.12341547E-07
  0.151515156      0.300000012      0.952925026      0.934721708      0.358277529       8.77799102E-05  0.305734038       2.32830644E-07
  0.141414136      0.300000012      0.953086913      0.934944093      0.358018428       7.86202581E-05  0.305502534       2.68220901E-07
  0.131313130      0.300000012      0.953252792      0.935171843      0.357771426       7.03178303E-05  0.305281132       2.38418579E-07
  0.121212125      0.300000012      0.953422248      0.935404718      0.357535899       6.27601257E-05  0.305069298       3.33413482E-07
  0.111111112      0.300000012      0.953594506      0.935641348      0.357311696       5.58471729E-05  0.304866970       3.66941094E-07
  0.101010099      0.300000012      0.953769147      0.935881257      0.357098520       4.96026732E-05  0.304673910       3.78116965E-07
   9.09090936E-02  0.300000012      0.953945220      0.936123013      0.356896639       4.38488387E-05  0.304490477       2.16066837E-07
   8.08080807E-02  0.300000012      0.954121768      0.936365545      0.356706500       3.85925014E-05  0.304316998       2.49594450E-07
   7.07070678E-02  0.300000012      0.954297841      0.936607301      0.356528491       3.39185717E-05  0.304153919       3.91155481E-08
   6.06060624E-02  0.300000012      0.954472244      0.936846852      0.356362671       2.97204897E-05  0.304001361      -5.77419996E-08
   5.05050495E-02  0.300000012      0.954643905      0.937082827      0.356209517       2.62044523E-05  0.303859770       2.79396772E-08
   4.04040404E-02  0.300000012      0.954811573      0.937313497      0.356068879       2.33933551E-05  0.303729087       2.68220901E-07
   3.03030312E-02  0.300000012      0.954974473      0.937537313      0.355940640       2.12582490E-05  0.303609341       2.25380063E-07
   2.02020202E-02  0.300000012      0.955131352      0.937752664      0.355824858       1.97804839E-05  0.303500682      -1.04308128E-07
   1.01010101E-02  0.300000012      0.955280364      0.937957406      0.355722398       1.81731139E-05  0.303403825      -1.43423676E-07
   0.00000000      0.289655179      0.955392063      0.938111126      0.355643332       6.31997636E-06  0.303329259       1.86264515E-09
   0.00000000      0.279310346      0.955395520      0.938115895      0.355632484      -1.72507953E-07  0.303319782       9.31322575E-09
   0.00000000      0.268965513      0.955398023      0.938119352      0.355627060      -5.52208940E-06  0.303315014       6.14672899E-08
   0.00000000      0.258620679      0.955399930      0.938121915      0.355626047      -1.04311976E-05  0.303314030      -9.31322575E-09
   0.00000000      0.248275861      0.955401361      0.938123763      0.355628937      -1.52401926E-05  0.303316444      -1.19209290E-07
   0.00000000      0.237931028      0.955402195      0.938124895      0.355635643      -2.03693999E-05  0.303322077      -1.76951289E-07
   0.00000000      0.227586210      0.955402195      0.938125074      0.355646670      -2.57307001E-05  0.303331494       1.86264515E-09
   0.00000000      0.217241377      0.955401421      0.938124001      0.355662227      -3.14427380E-05  0.303344786       3.53902578E-08
   0.00000000      0.206896558      0.955399811      0.938121855      0.355682820      -3.76357566E-05  0.303362459       1.00582838E-07
   0.00000000      0.196551725      0.955397069      0.938117921      0.355709076      -4.43613062E-05  0.303385049      -9.12696123E-08
   0.00000000      0.186206892      0.955392838      0.938112080      0.355741829      -5.17951412E-05  0.303413272      -6.70552254E-08
   0.00000000      0.175862074      0.955386937      0.938104093      0.355781823      -5.99565064E-05  0.303447723       2.60770321E-08
   0.00000000      0.165517241      0.955379248      0.938093424      0.355830103      -6.90053275E-05  0.303489387      -9.68575478E-08
   0.00000000      0.155172408      0.955369174      0.938079596      0.355887890      -7.90759514E-05  0.303539336      -6.70552254E-08
   0.00000000      0.144827589      0.955356538      0.938062131      0.355956286      -9.03006803E-05  0.303598464      -1.84401870E-07
   0.00000000      0.134482756      0.955340803      0.938040376      0.356036872      -1.02907630E-04  0.303668231      -2.53319740E-07
   0.00000000      0.124137931      0.955321312      0.938013792      0.356131107      -1.16878437E-04  0.303749830      -5.40167093E-08
   0.00000000      0.113793105      0.955297887      0.937981725      0.356240809      -1.32502057E-04  0.303844869       1.08033419E-07
   0.00000000      0.103448279      0.955269814      0.937943399      0.356368035      -1.50095468E-04  0.303955108       3.93018126E-07
   0.00000000       9.31034461E-02  0.955236733      0.937897742      0.356514931      -1.69746912E-04  0.304082543       1.45286322E-07
   0.00000000       8.27586204E-02  0.955197811      0.937843919      0.356683910      -1.91774307E-04  0.304229230      -1.88127160E-07
   0.00000000       7.24137947E-02  0.955151975      0.937781096      0.356877953      -2.16378379E-04  0.304397643       9.31322575E-09
   0.00000000       6.20689653E-02  0.955098808      0.937707961      0.357099950      -2.43584363E-04  0.304590404      -7.26431608E-08
   0.00000000       5.17241396E-02  0.955037355      0.937623441      0.357353508      -2.73256504E-04  0.304810643      -1.43423676E-07
   0.00000000       4.13793102E-02  0.954966545      0.937526286      0.357642412      -3.04561603E-04  0.305061549       8.75443220E-08
   0.00000000       3.10344826E-02  0.954885662      0.937415183      0.357971162      -3.34843644E-04  0.305347204       1.43423676E-07
   0.00000000       2.06896551E-02  0.954793990      0.937289178      0.358344883      -3.57909536E-04  0.305671871       1.08033419E-07
   0.00000000       1.03448275E-02  0.954691827      0.937148631      0.358769119      -3.58647463E-04  0.306040317      -7.45058060E-09
   1.01942774E-02  -1.06002917E-05  0.954694092      0.937151730      0.358885765      -5.62618836E-04  0.306139886      -5.58793545E-08
   2.03885511E-02  -4.05888240E-05  0.954830706      0.937339544      0.358717293      -1.15445466E-03  0.305988610       3.16649675E-08
   3.05827484E-02  -8.74972393E-05  0.955005229      0.937579691      0.358426630      -1.69649534E-03  0.305731267       3.33413482E-07
   4.07768898E-02  -1.49138228E-04  0.955201209      0.937849164      0.358055234      -2.17352575E-03  0.305404156       4.65661287E-07
   5.09709269E-02  -2.23550553E-04  0.955410659      0.938137293      0.357626349      -2.58740527E-03  0.305027306       6.57513738E-07
   6.11648858E-02  -3.08956922E-04  0.955628574      0.938436925      0.357154489      -2.94191390E-03  0.304613292       7.30156898E-07
   7.13587478E-02  -4.03728453E-04  0.955851853      0.938744009      0.356649071      -3.24088917E-03  0.304170251       8.02800059E-07
   8.15525427E-02  -5.06357115E-04  0.956077874      0.939054906      0.356117070      -3.48795322E-03  0.303704143       9.77888703E-07
   9.17462707E-02  -6.15430705E-04  0.956305087      0.939367235      0.355563045      -3.68593447E-03  0.303219020       8.28877091E-07
  0.101939946      -7.29613879E-04  0.956531823      0.939679444      0.354990482      -3.83727183E-03  0.302717775       1.18650496E-06
  0.112133577      -8.47629446E-04  0.956757486      0.939989984      0.354401588      -3.94374039E-03  0.302202374       1.44168735E-06
  0.122327171      -9.68243345E-04  0.956981182      0.940297842      0.353797615      -4.00689477E-03  0.301673889       1.59069896E-06
  0.132520750      -1.09024998E-03  0.957202494      0.940602422      0.353179187      -4.02753241E-03  0.301132858       1.72108412E-06
  0.142714337      -1.21245917E-03  0.957421124      0.940903425      0.352546275      -4.00601188E-03  0.300579369       1.95950270E-06
  0.152907923      -1.33368257E-03  0.957637012      0.941200554      0.351897955      -3.94258322E-03  0.300012529       2.00420618E-06
  0.163101539      -1.45272142E-03  0.957850277      0.941494286      0.351232797      -3.83677101E-03  0.299431115       2.33575702E-06
  0.173295200      -1.56835280E-03  0.958061159      0.941784501      0.350548744      -3.68766300E-03  0.298833519       2.31713057E-06
  0.183488905      -1.67931605E-03  0.958269894      0.942072034      0.349843174      -3.49394069E-03  0.298217326       2.61887908E-06
  0.193682685      -1.78429752E-03  0.958476841      0.942357183      0.349112779      -3.25373607E-03  0.297579944       2.93739140E-06
  0.203876525      -1.88191328E-03  0.958683014      0.942641318      0.348353356      -2.96461047E-03  0.296917647       3.28943133E-06
  0.214070454      -1.97069068E-03  0.958889246      0.942925215      0.347560227      -2.62360647E-03  0.296226561       3.26149166E-06
  0.224264458      -2.04904471E-03  0.959096372      0.943210721      0.346727908      -2.22680951E-03  0.295502037       3.67686152E-06
  0.234458551      -2.11525219E-03  0.959305704      0.943499327      0.345849842      -1.76946353E-03  0.294738561       4.07919288E-06
  0.244652733      -2.16741930E-03  0.959518909      0.943793237      0.344918549      -1.24582287E-03  0.293929845       4.37907875E-06
  0.254846990      -2.20344099E-03  0.959737957      0.944095254      0.343924999      -6.48675777E-04  0.293068320       4.74974513E-06
  0.265041292      -2.22095218E-03  0.959964752      0.944408357      0.342858851       3.08256094E-05  0.292145401       5.54509461E-06
  0.275235593      -2.21726228E-03  0.960202396      0.944736421      0.341707200       8.03745119E-04  0.291150391       6.31064177E-06
  0.285429865      -2.18927371E-03  0.960454047      0.945083916      0.340455145       1.68378290E-03  0.290071011       7.19912350E-06
  0.295624018      -2.13337177E-03  0.960724056      0.945456266      0.339084208       2.68848590E-03  0.288892180       7.61635602E-06
  0.305817962      -2.04527588E-03  0.961016715      0.945860326      0.337571770       3.84007371E-03  0.287595570       8.48621130E-06
  0.316011488      -1.91983546E-03  0.961338222      0.946304083      0.335889429       5.16805658E-03  0.286158383       9.24617052E-06
  0.326204360      -1.75073801E-03  0.961695373      0.946797609      0.334001660       6.71125669E-03  0.284552515       1.06524676E-05
  0.336396307      -1.53008103E-03  0.962097406      0.947353780      0.331862986       8.52274150E-03  0.282742679       1.27200037E-05
  0.346586645      -1.24772848E-03  0.962555468      0.947987854      0.329414636       1.06774569E-02  0.280684501       1.53966248E-05
  0.356774658      -8.90274358E-04  0.963083684      0.948719740      0.326579422       1.32849170E-02  0.278321594       1.91442668E-05
  0.366958946      -4.39326104E-04  0.963701010      0.949575961      0.323254913       1.65334512E-02  0.275584459       2.41212547E-05
  0.377137065       1.33766516E-04  0.964448512      0.950615466      0.319351375       2.12671440E-02  0.272459984       3.27117741E-05
  0.387299746       9.32033930E-04  0.965198815      0.951662123      0.315525442       2.84187663E-02  0.269644648       4.43886966E-05
  0.397434235       2.03104783E-03  0.965684414      0.952348292      0.312519163       3.75733413E-02  0.267885149       6.09848648E-05
  0.407523632       3.48527054E-03  0.965799868      0.952531636      0.310636133       4.86174785E-02  0.267575771       8.61119479E-05
  0.417543113       5.36030158E-03  0.965426266      0.952056348      0.310308874       6.20302111E-02  0.269318759       1.28708780E-04
  0.427456856       7.73026003E-03  0.964284420      0.950553656      0.312503219       7.84780383E-02  0.274273992       2.05937773E-04
  0.437217921       1.06651187E-02  0.961850584      0.947333753      0.319058657       9.85681191E-02  0.284382701       3.50795686E-04
  0.446780443       1.41935814E-02  0.957185745      0.941159546      0.333221555      0.121990182      0.302445233       6.18301332E-04
  0.456144422       1.82216074E-02  0.948857129      0.930123150      0.359778464      0.145137444      0.331163317       1.05755962E-03
  0.465438336       2.24102195E-02  0.935679018      0.912628889      0.402074039      0.157664463      0.369587213       1.64994597E-03
  0.474928796       2.61229333E-02  0.919314861      0.890922129      0.453283995      0.144804642      0.408526123       2.27896497E-03
  0.484786808       2.86871437E-02  0.905412436      0.872622252      0.494552076      0.102470681      0.434796453       2.85810232E-03
  0.494905144       2.98680626E-02  0.898540735      0.863903582      0.512263477       4.67027947E-02  0.443366647       3.48241627E-03
  0.505094886       2.98680626E-02  0.897544146      0.863207459      0.509358943      -7.70899840E-03  0.439015657       4.22989950E-03
  0.515213192       2.86871418E-02  0.899071872      0.866264224      0.490617096      -6.24741539E-02  0.425837040       5.38393483E-03
  0.525071204       2.61229314E-02  0.903128684      0.873147905      0.455516905     -0.114066385      0.403624833       6.99601322E-03
  0.534561634       2.24102195E-02  0.911361933      0.885651171      0.409957409     -0.145280480      0.372887582       8.50912556E-03
  0.543855608       1.82216056E-02  0.922832787      0.902177274      0.365769893     -0.146830380      0.336901307       9.48584825E-03
  0.553219557       1.41935805E-02  0.933814704      0.917713702      0.331199825     -0.127856523      0.302669048       9.99832340E-03
  0.562782109       1.06651178E-02  0.941618741      0.928690374      0.308210403     -0.103378475      0.276653409       1.02368724E-02
  0.572543144       7.73025956E-03  0.946245670      0.935180724      0.294699728      -8.14989284E-02  0.259939790       1.03387721E-02
  0.582456887       5.36030112E-03  0.948730946      0.938665688      0.287581176      -6.38806745E-02  0.250305861       1.03861121E-02
  0.592476368       3.48527008E-03  0.949943066      0.940366328      0.284497470      -4.99230139E-02  0.245358020       1.04087070E-02