 title = "grid"
                                   variables = "x","y","rho","P","u","v","M","S"
 zone n=        3000  e =        5742  et=quadrilateral, f=fepoint
   0.00000000       0.00000000      0.953834116      0.935970128      0.361866385      -2.88321055E-04  0.308737785      -1.49011612E-08
   1.00000000       0.00000000      0.944422722      0.932330251      0.322020799       5.82549081E-04  0.273916990       9.98579152E-03
   1.00000000      0.300000012      0.951283872      0.932477117      0.367101431      -3.25397605E-06  0.313370436       9.22568142E-06
   0.00000000      0.300000012      0.954936266      0.937484682      0.357609242      -1.61835260E-06  0.305035114       6.89178705E-08
   1.00000000       1.03448275E-02  0.945952415      0.932388723      0.328790635       8.65002978E-04  0.279893667       7.78273679E-03
   1.00000000       2.06896551E-02  0.947703123      0.932429373      0.337114751       1.10982498E-03  0.287239581       5.23767993E-03
   1.00000000       3.10344826E-02  0.948865712      0.932457268      0.343483508       1.24587014E-03  0.292841524       3.55125964E-03
   1.00000000       4.13793102E-02  0.949653685      0.932476759      0.348659307       1.30925968E-03  0.297374636       2.41001323E-03
   1.00000000       5.17241396E-02  0.950190246      0.932490170      0.352899373       1.32266944E-03  0.301073879       1.63358822E-03
   1.00000000       6.20689653E-02  0.950554073      0.932499349      0.356341124       1.30122062E-03  0.304066777       1.10746734E-03
   1.00000000       7.24137947E-02  0.950799227      0.932505429      0.359097570       1.25531107E-03  0.306457192       7.52998516E-04
   1.00000000       8.27586204E-02  0.950964153      0.932509482      0.361269057       1.19264575E-03  0.308336228       5.14533371E-04
   1.00000000       9.31034461E-02  0.951073945      0.932511568      0.362950295       1.11890363E-03  0.309788465       3.55094671E-04
   1.00000000      0.103448279      0.951146901      0.932512403      0.364227265       1.03842630E-03  0.310889959       2.48603523E-04
   1.00000000      0.113793105      0.951195419      0.932512045      0.365176857       9.54422227E-04  0.311708301       1.76835805E-04
   1.00000000      0.124137931      0.951227486      0.932510912      0.365869045       8.69437237E-04  0.312304407       1.28462911E-04
   1.00000000      0.134482756      0.951248646      0.932509005      0.366363049       7.85421231E-04  0.312729746       9.52314585E-05
   1.00000000      0.144827589      0.951262951      0.932506621      0.366706222       7.03867641E-04  0.313025296       7.16540962E-05
   1.00000000      0.155172408      0.951272488      0.932503998      0.366937488       6.25806919E-04  0.313224584       5.48157841E-05
   1.00000000      0.165517241      0.951278508      0.932501078      0.367086947       5.51979640E-04  0.313353509       4.27868217E-05
   1.00000000      0.175862074      0.951282024      0.932497919      0.367177814       4.82901436E-04  0.313432127       3.41851264E-05
   1.00000000      0.186206892      0.951284170      0.932494879      0.367227614       4.18748241E-04  0.313475430       2.78260559E-05
   1.00000000      0.196551725      0.951285064      0.932491720      0.367248982       3.59692611E-04  0.313494325       2.31377780E-05
   1.00000000      0.206896558      0.951285124      0.932488739      0.367251337       3.05550755E-04  0.313496739       1.98185444E-05
   1.00000000      0.217241377      0.951285124      0.932485878      0.367241442       2.56100961E-04  0.313488752       1.67898834E-05
   1.00000000      0.227586210      0.951284885      0.932483137      0.367224187       2.11030929E-04  0.313474447       1.41356140E-05
   1.00000000      0.237931028      0.951283932      0.932480872      0.367202938       1.69911364E-04  0.313456506       1.31465495E-05
   1.00000000      0.248275861      0.951283216      0.932478726      0.367180139       1.32309360E-04  0.313437283       1.18557364E-05
   1.00000000      0.258620679      0.951282501      0.932476819      0.367157847       9.77860836E-05  0.313418478       1.08890235E-05
   1.00000000      0.268965513      0.951281607      0.932475209      0.367137134       6.58764839E-05  0.313400894       1.04717910E-05
   1.00000000      0.279310346      0.951280653      0.932473898      0.367118359       3.64372245E-05  0.313384920       1.05239451E-05
   1.00000000      0.289655179      0.951280177      0.932472467      0.367103428       9.71631380E-06  0.313372344       9.68948007E-06
  0.989898980      0.300000012      0.951266050      0.932452500      0.367099226       2.07079256E-06  0.313369781       9.05990601E-06
  0.979797959      0.300000012      0.951221645      0.932391584      0.367102355       4.63431252E-06  0.313375384       9.05804336E-06
  0.969696999      0.300000012      0.951171577      0.932323039      0.367110521       6.31022522E-06  0.313385606       9.26293433E-06
  0.959595978      0.300000012      0.951115549      0.932246149      0.367125243       7.32485205E-06  0.313401878       9.22195613E-06
  0.949494958      0.300000012      0.951052964      0.932160437      0.367147803       7.78950198E-06  0.313425213       9.39331949E-06
  0.939393938      0.300000012      0.950983822      0.932065606      0.367179155       7.75481931E-06  0.313456535       9.47527587E-06
  0.929292917      0.300000012      0.950908005      0.931961477      0.367220581       7.17963940E-06  0.313496917       9.38028097E-06
  0.919191897      0.300000012      0.950825214      0.931847692      0.367272824       6.03084254E-06  0.313546985       9.17539001E-06
  0.909090936      0.300000012      0.950735390      0.931724370      0.367336631       4.30455930E-06  0.313607395       9.07108188E-06
  0.898989916      0.300000012      0.950638473      0.931591332      0.367413223       1.93035908E-06  0.313679218       8.96863639E-06
  0.888888896      0.300000012      0.950534523      0.931448758      0.367503285      -1.08090796E-06  0.313762963       9.04686749E-06
  0.878787875      0.300000012      0.950423658      0.931296647      0.367607981      -4.74583840E-06  0.313859671       8.97422433E-06
  0.868686855      0.300000012      0.950305760      0.931134939      0.367728144      -9.09672053E-06  0.313970059       9.02824104E-06
  0.858585835      0.300000012      0.950181067      0.930963933      0.367864728      -1.42674817E-05  0.314094901       9.08225775E-06
  0.848484874      0.300000012      0.950049937      0.930783868      0.368019044      -2.01799121E-05  0.314235389       8.86619091E-06
  0.838383853      0.300000012      0.949912369      0.930595040      0.368191928      -2.69223165E-05  0.314392120       8.67806375E-06
  0.828282833      0.300000012      0.949768484      0.930397630      0.368384898      -3.45716180E-05  0.314566433       8.61473382E-06
  0.818181813      0.300000012      0.949618340      0.930191755      0.368599057      -4.31586959E-05  0.314759254       8.62590969E-06
  0.808080792      0.300000012      0.949462116      0.929977477      0.368835986      -5.26753938E-05  0.314971954       8.60355794E-06
  0.797979772      0.300000012      0.949300051      0.929755151      0.369096965      -6.31336952E-05  0.315205604       8.48062336E-06
  0.787878811      0.300000012      0.949132144      0.929524839      0.369383454      -7.45665529E-05  0.315461427       8.39680433E-06
  0.777777791      0.300000012      0.948958457      0.929286897      0.369696885      -8.68288771E-05  0.315740645       8.55326653E-06
  0.767676771      0.300000012      0.948779166      0.929041207      0.370038539      -9.99979384E-05  0.316044360       8.73766840E-06
  0.757575750      0.300000012      0.948594272      0.928787649      0.370409697      -1.14006063E-04  0.316373706       8.57934356E-06
  0.747474730      0.300000012      0.948403776      0.928526700      0.370811462      -1.28694213E-04  0.316729546       8.81776214E-06
  0.737373710      0.300000012      0.948207915      0.928258240      0.371244609      -1.43848534E-04  0.317112625       8.73208046E-06
  0.727272749      0.300000012      0.948006928      0.927982748      0.371709615      -1.59432617E-04  0.317523301       8.72090459E-06
  0.717171729      0.300000012      0.947800934      0.927700281      0.372206450      -1.75172405E-04  0.317961603       8.49924982E-06
  0.707070708      0.300000012      0.947590172      0.927411377      0.372734934      -1.90834820E-04  0.318427205       8.43964517E-06
  0.696969688      0.300000012      0.947375119      0.927116692      0.373293966      -2.06155659E-04  0.318919301       8.34092498E-06
  0.686868668      0.300000012      0.947156429      0.926817238      0.373881876      -2.20759990E-04  0.319436312       8.54395330E-06
  0.676767647      0.300000012      0.946935177      0.926513910      0.374496132      -2.34344523E-04  0.319976121       8.31484795E-06
  0.666666687      0.300000012      0.946712017      0.926208317      0.375133425      -2.46477866E-04  0.320535719       8.32229853E-06
  0.656565666      0.300000012      0.946488678      0.925902188      0.375789285      -2.56700529E-04  0.321111321       8.08574259E-06
  0.646464646      0.300000012      0.946266592      0.925597608      0.376458168      -2.64411850E-04  0.321698099       7.63684511E-06
  0.636363626      0.300000012      0.946047246      0.925297379      0.377133399      -2.69177777E-04  0.322290003       7.81007111E-06
  0.626262605      0.300000012      0.945833385      0.925004721      0.377806872      -2.70543387E-04  0.322880089       7.98329711E-06
  0.616161644      0.300000012      0.945627749      0.924722970      0.378469437      -2.67788797E-04  0.323460430       7.73370266E-06
  0.606060624      0.300000012      0.945433557      0.924456894      0.379110157      -2.60275294E-04  0.324021369       7.46920705E-06
  0.595959604      0.300000012      0.945253551      0.924210489      0.379717201      -2.47655495E-04  0.324552566       7.50645995E-06
  0.585858583      0.300000012      0.945091486      0.923988581      0.380277693      -2.29692771E-04  0.325042784       7.36862421E-06
  0.575757563      0.300000012      0.944950402      0.923795342      0.380778700      -2.06479497E-04  0.325480759       7.21588731E-06
  0.565656543      0.300000012      0.944833577      0.923635125      0.381207615      -1.78488423E-04  0.325855523       6.85453415E-06
  0.555555582      0.300000012      0.944743454      0.923511446      0.381552875      -1.46352511E-04  0.326156884       6.55651093E-06
  0.545454562      0.300000012      0.944681585      0.923426926      0.381804913      -1.11196729E-04  0.326376587       6.71669841E-06
  0.535353541      0.300000012      0.944649696      0.923383355      0.381956190      -7.43683995E-05  0.326508075       6.72414899E-06
  0.525252521      0.300000012      0.944648266      0.923381388      0.382002324      -3.71646202E-05  0.326547593       6.72414899E-06
  0.515151501      0.300000012      0.944677651      0.923421204      0.381941259      -5.40728252E-07  0.326493442       6.28829002E-06
  0.505050480      0.300000012      0.944737613      0.923503160      0.381772935       3.51489034E-05  0.326345414       6.22123480E-06
  0.494949490      0.300000012      0.944827855      0.923626661      0.381498963       6.98547956E-05  0.326105028       6.16908073E-06
  0.484848499      0.300000012      0.944947541      0.923790395      0.381122380       1.03478735E-04  0.325774878       6.11320138E-06
  0.474747479      0.300000012      0.945095301      0.923992753      0.380648822       1.35607086E-04  0.325359911       6.24731183E-06
  0.464646459      0.300000012      0.945269763      0.924231589      0.380084604       1.66716578E-04  0.324865669       6.31436706E-06
  0.454545468      0.300000012      0.945469439      0.924504697      0.379435927       1.97047586E-04  0.324297577       6.07222319E-06
  0.444444448      0.300000012      0.945692301      0.924809396      0.378709823       2.25552809E-04  0.323661774       5.59166074E-06
  0.434343427      0.300000012      0.945935249      0.925142050      0.377915949       2.50529876E-04  0.322966725       5.59911132E-06
  0.424242437      0.300000012      0.946195185      0.925497591      0.377066016       2.70672754E-04  0.322222769       5.21913171E-06
  0.414141417      0.300000012      0.946468890      0.925871909      0.376173139       2.85371643E-04  0.321441233       4.70317900E-06
  0.404040396      0.300000012      0.946752846      0.926260412      0.375250608       2.94380588E-04  0.320633799       4.24683094E-06
  0.393939406      0.300000012      0.947044194      0.926659167      0.374311000       2.98172352E-04  0.319811314       3.85567546E-06
  0.383838385      0.300000012      0.947340250      0.927064538      0.373365641       2.97157676E-04  0.318983704       3.64519656E-06
  0.373737365      0.300000012      0.947639167      0.927473664      0.372424781       2.91875505E-04  0.318159848       3.14973295E-06
  0.363636374      0.300000012      0.947938859      0.927884161      0.371497065       2.82960507E-04  0.317347258       2.96905637E-06
  0.353535354      0.300000012      0.948237836      0.928293526      0.370589674       2.71219207E-04  0.316552222       2.56299973E-06
  0.343434334      0.300000012      0.948535383      0.928701043      0.369708091       2.57415726E-04  0.315779418       2.24635005E-06
  0.333333343      0.300000012      0.948830307      0.929104924      0.368856639       2.42044684E-04  0.315032661       1.84401870E-06
  0.323232323      0.300000012      0.949121892      0.929504514      0.368038446       2.25575452E-04  0.314314544       1.63726509E-06
  0.313131303      0.300000012      0.949409664      0.929899156      0.367255807       2.08447440E-04  0.313627124       1.73784792E-06
  0.303030312      0.300000012      0.949693441      0.930288136      0.366509914       1.91030456E-04  0.312971443       1.51433051E-06
  0.292929292      0.300000012      0.949973106      0.930671453      0.365801334       1.73636727E-04  0.312348038       1.30198896E-06
  0.282828271      0.300000012      0.950248063      0.931048453      0.365130335       1.56552298E-04  0.311757088       1.13062561E-06
  0.272727281      0.300000012      0.950518310      0.931419015      0.364496499       1.39893877E-04  0.311198205       9.57399607E-07
  0.262626261      0.300000012      0.950783491      0.931782842      0.363899469       1.23886435E-04  0.310671121       9.98377800E-07
  0.252525240      0.300000012      0.951043606      0.932139695      0.363338262       1.08554334E-04  0.310175061       9.23871994E-07
  0.242424250      0.300000012      0.951298416      0.932489216      0.362811774       9.40443933E-05  0.309709042       8.00937414E-07
  0.232323229      0.300000012      0.951547623      0.932831228      0.362318844       8.04806186E-05  0.309272021       7.89761543E-07
  0.222222224      0.300000012      0.951790869      0.933165193      0.361858547       6.77617500E-05  0.308863312       8.62404704E-07
  0.212121218      0.300000012      0.952028215      0.933490813      0.361429691       5.60083354E-05  0.308481932       7.15255737E-07
  0.202020198      0.300000012      0.952259064      0.933807611      0.361031145       4.52381646E-05  0.308126837       5.53205609E-07
  0.191919193      0.300000012      0.952483118      0.934114993      0.360661596       3.54145377E-05  0.307797015       2.88709998E-07
  0.181818187      0.300000012      0.952699482      0.934412122      0.360319734       2.66651296E-05  0.307491243       3.59490514E-07
  0.171717167      0.300000012      0.952908218      0.934698880      0.360004365       1.89130751E-05  0.307208627       4.73111868E-07
  0.161616161      0.300000012      0.953108847      0.934974313      0.359714150       1.22491865E-05  0.306948096       4.41446900E-07
  0.151515156      0.300000012      0.953300774      0.935237825      0.359447688       6.65615244E-06  0.306708395       3.44589353E-07
  0.141414136      0.300000012      0.953483820      0.935488999      0.359203398       2.06481150E-06  0.306488186       1.00582838E-07
  0.131313130      0.300000012      0.953657329      0.935727239      0.358980149      -1.46646983E-06  0.306286573      -3.72529030E-08
  0.121212125      0.300000012      0.953820884      0.935951829      0.358776391      -4.03405738E-06  0.306102246      -1.04308128E-07
  0.111111112      0.300000012      0.953974247      0.936162531      0.358591139      -5.84396776E-06  0.305934340      -8.75443220E-08
  0.101010099      0.300000012      0.954117000      0.936358690      0.358423293      -6.86246449E-06  0.305781990      -1.37835741E-07
   9.09090936E-02  0.300000012      0.954248905      0.936539769      0.358272135      -7.34708647E-06  0.305644602      -2.79396772E-07
   8.08080807E-02  0.300000012      0.954369962      0.936706126      0.358137131      -7.39007965E-06  0.305521697      -2.47731805E-07
   7.07070678E-02  0.300000012      0.954479754      0.936857045      0.358017981      -7.07302297E-06  0.305412978      -1.58324838E-07
   6.06060624E-02  0.300000012      0.954578400      0.936992705      0.357914418      -6.59465832E-06  0.305318326      -9.31322575E-08
   5.05050495E-02  0.300000012      0.954666078      0.937113047      0.357826293      -5.91341313E-06  0.305237561      -2.04890966E-07
   4.04040404E-02  0.300000012      0.954742432      0.937218308      0.357753605      -5.11980534E-06  0.305170625       9.12696123E-08
   3.03030312E-02  0.300000012      0.954808056      0.937308729      0.357696027      -4.24179825E-06  0.305117279       3.48314643E-07
   2.02020202E-02  0.300000012      0.954863369      0.937384844      0.357652843      -3.10368682E-06  0.305076897       4.24683094E-07
   1.01010101E-02  0.300000012      0.954908848      0.937447011      0.357623279      -1.71447687E-06  0.305048823       7.82310963E-08
   0.00000000      0.289655179      0.954937756      0.937486708      0.357611626      -9.62795639E-06  0.305037051       5.58793545E-08
   0.00000000      0.279310346      0.954935014      0.937482893      0.357622862      -1.78585269E-05  0.305046827      -1.67638063E-08
   0.00000000      0.268965513      0.954929352      0.937475026      0.357644737      -2.52461814E-05  0.305065870      -6.14672899E-08
   0.00000000      0.258620679      0.954921007      0.937463522      0.357676297      -3.21696643E-05  0.305093318      -8.19563866E-08
   0.00000000      0.248275861      0.954910278      0.937448919      0.357716799      -3.86861284E-05  0.305128515       2.98023224E-08
   0.00000000      0.237931028      0.954897344      0.937431097      0.357765675      -4.51570086E-05  0.305171043      -1.49011612E-08
   0.00000000      0.227586210      0.954882145      0.937410295      0.357822925      -5.15231368E-05  0.305220842       1.04308128E-07
   0.00000000      0.217241377      0.954864800      0.937386453      0.357888222      -5.79111584E-05  0.305277646       7.82310963E-08
   0.00000000      0.206896558      0.954845428      0.937359750      0.357961327      -6.43727981E-05  0.305341244      -1.86264515E-09
   0.00000000      0.196551725      0.954823911      0.937330067      0.358042359      -7.09944725E-05  0.305411756      -8.75443220E-08
   0.00000000      0.186206892      0.954800189      0.937297583      0.358131468      -7.79274997E-05  0.305489272       5.58793545E-09
   0.00000000      0.175862074      0.954774380      0.937262177      0.358228624      -8.52784651E-05  0.305573791       7.07805157E-08
   0.00000000      0.165517241      0.954746544      0.937223732      0.358334154      -9.30962342E-05  0.305665672      -9.68575478E-08
   0.00000000      0.155172408      0.954716027      0.937181890      0.358448684      -1.01614321E-04  0.305765301      -5.58793545E-09
   0.00000000      0.144827589      0.954683244      0.937136769      0.358572483      -1.10958521E-04  0.305873007      -1.30385160E-07
   0.00000000      0.134482756      0.954647779      0.937088311      0.358706445      -1.21444238E-04  0.305989474       2.36555934E-07
   0.00000000      0.124137931      0.954609632      0.937035680      0.358851403      -1.33069203E-04  0.306115627       5.58793545E-09
   0.00000000      0.113793105      0.954568207      0.936978757      0.359008729      -1.46177757E-04  0.306252480      -9.31322575E-09
   0.00000000      0.103448279      0.954523146      0.936916888      0.359179705      -1.61103773E-04  0.306401253       5.02914190E-08
   0.00000000       9.31034461E-02  0.954474211      0.936849713      0.359366328      -1.77981943E-04  0.306563586       8.00937414E-08
   0.00000000       8.27586204E-02  0.954420805      0.936776400      0.359570563      -1.97058835E-04  0.306741238       1.80676579E-07
   0.00000000       7.24137947E-02  0.954362571      0.936696291      0.359794736      -2.18547983E-04  0.306936264       1.26659870E-07
   0.00000000       6.20689653E-02  0.954298437      0.936608136      0.360041648      -2.42619717E-04  0.307151049       2.60770321E-08
   0.00000000       5.17241396E-02  0.954227865      0.936511099      0.360314488      -2.68955453E-04  0.307388365      -2.23517418E-08
   0.00000000       4.13793102E-02  0.954149902      0.936403990      0.360617071      -2.96430517E-04  0.307651520      -1.67638063E-08
   0.00000000       3.10344826E-02  0.954064071      0.936286032      0.360953629      -3.22044070E-04  0.307944208      -4.65661287E-08
   0.00000000       2.06896551E-02  0.953969717      0.936156511      0.361328989      -3.38708574E-04  0.308270574       1.04308128E-07
   0.00000000       1.03448275E-02  0.953866959      0.936015427      0.361748815      -3.29198694E-04  0.308635384       1.82539225E-07
   1.01942774E-02  -1.06002917E-05  0.953784525      0.935902178      0.361923516      -5.29625511E-04  0.308789939       1.95577741E-07
   2.03885511E-02  -4.05888240E-05  0.953671932      0.935747445      0.361927629      -1.12564990E-03  0.308801919       8.56816769E-08
   3.05827484E-02  -8.74972393E-05  0.953609049      0.935661077      0.361792296      -1.67614024E-03  0.308692336       9.87201929E-08
   4.07768898E-02  -1.49138228E-04  0.953578711      0.935619593      0.361561984      -2.16342416E-03  0.308499962       3.12924385E-07
   5.09709269E-02  -2.23550553E-04  0.953573048      0.935611963      0.361261606      -2.58853566E-03  0.308246404       5.12227416E-07
   6.11648858E-02  -3.08956922E-04  0.953587711      0.935632467      0.360906661      -2.95505743E-03  0.307944983       8.47503543E-07
   7.13587478E-02  -4.03728453E-04  0.953619778      0.935676694      0.360507280      -3.26647470E-03  0.307604432       1.07660890E-06
   8.15525427E-02  -5.06357115E-04  0.953667164      0.935741723      0.360070556      -3.52621311E-03  0.307230860       1.00210309E-06
   9.17462707E-02  -6.15430705E-04  0.953728199      0.935825765      0.359601200      -3.73689923E-03  0.306828231       1.22189522E-06
  0.101939946      -7.29613879E-04  0.953802109      0.935927153      0.359102786      -3.90078523E-03  0.306399822       1.08592212E-06
  0.112133577      -8.47629446E-04  0.953887641      0.936044931      0.358577281      -4.01948113E-03  0.305947095       1.35228038E-06
  0.122327171      -9.68243345E-04  0.953984499      0.936177850      0.358025700      -4.09448380E-03  0.305471063       1.19209290E-06
  0.132520750      -1.09024998E-03  0.954092085      0.936325967      0.357448250      -4.12629824E-03  0.304971814       1.51246786E-06
  0.142714337      -1.21245917E-03  0.954210341      0.936488688      0.356844395      -4.11544088E-03  0.304448992       1.81235373E-06
  0.152907923      -1.33368257E-03  0.954339266      0.936665833      0.356212795      -4.06184746E-03  0.303901494       1.74157321E-06
  0.163101539      -1.45272142E-03  0.954478741      0.936857820      0.355551809      -3.96517012E-03  0.303327769       2.14390457E-06
  0.173295200      -1.56835280E-03  0.954629421      0.937064886      0.354858965      -3.82436439E-03  0.302725881       2.15880573E-06
  0.183488905      -1.67931605E-03  0.954791248      0.937287569      0.354131401      -3.63817089E-03  0.302093327       2.40840018E-06
  0.193682685      -1.78429752E-03  0.954964936      0.937526464      0.353365898      -3.40476143E-03  0.301427424       2.64309347E-06
  0.203876525      -1.88191328E-03  0.955151260      0.937782586      0.352558285      -3.12161748E-03  0.300724566       2.68593431E-06
  0.214070454      -1.97069068E-03  0.955350935      0.938057363      0.351704091      -2.78583542E-03  0.299980998       2.95229256E-06
  0.224264458      -2.04904471E-03  0.955565035      0.938351929      0.350797921      -2.39341962E-03  0.299192280       3.22423875E-06
  0.234458551      -2.11525219E-03  0.955794752      0.938668191      0.349833667      -1.93967251E-03  0.298353106       3.70852649E-06
  0.244652733      -2.16741930E-03  0.956041813      0.939008057      0.348804057      -1.41873083E-03  0.297457486       3.85381281E-06
  0.254846990      -2.20344099E-03  0.956307828      0.939374208      0.347700387      -8.23393231E-04  0.296498120       4.23006713E-06
  0.265041292      -2.22095218E-03  0.956594706      0.939769208      0.346512437      -1.44717284E-04  0.295466483       4.68641520E-06
  0.275235593      -2.21726228E-03  0.956905067      0.940196753      0.345227748       6.28295296E-04  0.294352323       5.44637442E-06
  0.285429865      -2.18927371E-03  0.957241595      0.940660715      0.343831629       1.50953466E-03  0.293143511       6.48573041E-06
  0.295624018      -2.13337177E-03  0.957608223      0.941165864      0.342305571       2.51654885E-03  0.291825026       7.24010170E-06
  0.305817962      -2.04527588E-03  0.958009183      0.941718340      0.340627372       3.67171783E-03  0.290378928       8.00751150E-06
  0.316011488      -1.91983546E-03  0.958449364      0.942325234      0.338768870       5.00432448E-03  0.288782597       9.19960439E-06
  0.326204360      -1.75073801E-03  0.958935320      0.942995608      0.336694866       6.55333837E-03  0.287008345       1.06543303E-05
  0.336396307      -1.53008103E-03  0.959475040      0.943740785      0.334360152       8.37190822E-03  0.285021126       1.28671527E-05
  0.346586645      -1.24772848E-03  0.960078776      0.944574594      0.331706524       1.05349272E-02  0.282777071       1.52941793E-05
  0.356774658      -8.90274358E-04  0.960759223      0.945515394      0.328657299       1.31518878E-02  0.280220360       1.88928097E-05
  0.366958946      -4.39326104E-04  0.961534023      0.946587682      0.325110763       1.64111778E-02  0.277282089       2.37450004E-05
  0.377137065       1.33766516E-04  0.962442815      0.947848380      0.320978433       2.11592559E-02  0.273950100       3.21418047E-05
  0.387299746       9.32033930E-04  0.963354588      0.949117303      0.316923499       2.83302255E-02  0.270926714       4.43439931E-05
  0.397434235       2.03104783E-03  0.963999093      0.950022936      0.313694686       3.75030935E-02  0.268965214       6.17261976E-05
  0.407523632       3.48527054E-03  0.964270175      0.950421631      0.311598420       4.85599265E-02  0.268462211       8.76989216E-05
  0.417543113       5.36030158E-03  0.964048564      0.950156927      0.311071128       6.19772673E-02  0.270022929       1.30962580E-04
  0.427456856       7.73026003E-03  0.963056743      0.948862672      0.313080937       7.84210116E-02  0.274808764       2.08927318E-04
  0.437217921       1.06651187E-02  0.960772693      0.945852041      0.319468647       9.84948501E-02  0.284761161       3.55236232E-04
  0.446780443       1.41935814E-02  0.956257045      0.939887583      0.333486885      0.121887490      0.302685320       6.24921173E-04
  0.456144422       1.82216074E-02  0.948080540      0.929065943      0.359925479      0.144992381      0.331286192       1.06658787E-03
  0.465438336       2.24102195E-02  0.935061872      0.911797345      0.402129263      0.157469779      0.369616896       1.66204572E-03
  0.474928796       2.61229333E-02  0.918868542      0.890329480      0.453266382      0.144564882      0.408485800       2.29342654E-03
  0.484786808       2.86871437E-02  0.905150235      0.872280657      0.494466454      0.102201931      0.434699476       2.87202001E-03
  0.494905144       2.98680626E-02  0.898479640      0.863831162      0.512101412       4.64275777E-02  0.443209618       3.49380821E-03
  0.505094886       2.98680626E-02  0.897705495      0.863431573      0.509078443      -7.95968343E-03  0.438759714       4.23790142E-03
  0.515213192       2.86871418E-02  0.899470508      0.866804838      0.490182668      -6.26702607E-02  0.425449014       5.38716093E-03
  0.525071204       2.61229314E-02  0.903765380      0.874009252      0.454918265     -0.114163749      0.403089374       6.99539855E-03
  0.534561634       2.24102195E-02  0.912216187      0.886816263      0.409203559     -0.145247370      0.372198671       8.51212069E-03
  0.543855608       1.82216056E-02  0.923867047      0.903609991      0.364876807     -0.146681830      0.336067170       9.50446911E-03
  0.553219557       1.41935805E-02  0.934991658      0.919374764      0.330182552     -0.127650216      0.301713854       1.00432895E-02
  0.562782109       1.06651178E-02  0.942916811      0.930554211      0.307081252     -0.103173085      0.275600374       1.03131924E-02
  0.572543144       7.73025956E-03  0.947657287      0.937236130      0.293469816      -8.13283175E-02  0.258802176       1.04472693E-02
  0.582456887       5.36030112E-03  0.950256169      0.940906763      0.286262929      -6.37577400E-02  0.249092907       1.05219334E-02
  0.592476368       3.48527008E-03  0.951589882      0.942789972      0.283099651      -4.98464033E-02  0.244074538       1.05578210E-02