 title = "grid"
                                   variables = "x","y","rho","P","u","v","M","S"
 zone n=        3000  e =        5742  et=quadrilateral, f=fepoint
   0.00000000       0.00000000      0.953688502      0.935770154      0.362566650      -3.08939983E-04  0.309344679       7.45058060E-08
   1.00000000       0.00000000      0.944369793      0.932277918      0.321228832       5.83682384E-04  0.273243338       1.00081619E-02
   1.00000000      0.300000012      0.951329172      0.932539105      0.367147356       1.64349221E-05  0.313406706       9.02637839E-06
   0.00000000      0.300000012      0.954431653      0.936791241      0.359414905       1.95255343E-05  0.306607723       1.37835741E-07
   1.00000000       1.03448275E-02  0.945906639      0.932339907      0.328000456       8.86002439E-04  0.279221594       7.79817626E-03
   1.00000000       2.06896551E-02  0.947664082      0.932381213      0.336338073       1.15520961E-03  0.286579400       5.24375588E-03
   1.00000000       3.10344826E-02  0.948832273      0.932410657      0.342723697       1.31430628E-03  0.292196125       3.55061889E-03
   1.00000000       4.13793102E-02  0.949624360      0.932432473      0.347921044       1.39931310E-03  0.296747744       2.40572542E-03
   1.00000000       5.17241396E-02  0.950163543      0.932448924      0.352186590       1.43289752E-03  0.300468564       1.62875094E-03
   1.00000000       6.20689653E-02  0.950529754      0.932461798      0.355657130       1.43019040E-03  0.303485751       1.10307522E-03
   1.00000000       7.24137947E-02  0.950777769      0.932472169      0.358446777       1.40158786E-03  0.305904269       7.48887658E-04
   1.00000000       8.27586204E-02  0.950945199      0.932480931      0.360654980       1.35465490E-03  0.307814240       5.11806458E-04
   1.00000000       9.31034461E-02  0.951058209      0.932488024      0.362375319       1.29492860E-03  0.309299558       3.53025272E-04
   1.00000000      0.103448279      0.951135159      0.932494283      0.363693476       1.22646627E-03  0.310435951       2.46502459E-04
   1.00000000      0.113793105      0.951187789      0.932500005      0.364686310       1.15237257E-03  0.311290830       1.75191090E-04
   1.00000000      0.124137931      0.951224327      0.932505071      0.365422875       1.07511308E-03  0.311924517       1.26793981E-04
   1.00000000      0.134482756      0.951250136      0.932509720      0.365961909       9.96430870E-04  0.312387884       9.38158482E-05
   1.00000000      0.144827589      0.951269150      0.932513952      0.366350591       9.17692028E-04  0.312721908       7.03819096E-05
   1.00000000      0.155172408      0.951283216      0.932517946      0.366626769       8.39906454E-04  0.312959135       5.39403409E-05
   1.00000000      0.165517241      0.951293886      0.932521641      0.366820365       7.63893127E-04  0.313125372       4.22243029E-05
   1.00000000      0.175862074      0.951302290      0.932525098      0.366953820       6.90083893E-04  0.313239992       3.35071236E-05
   1.00000000      0.186206892      0.951309025      0.932528436      0.367044091       6.18682359E-04  0.313317478       2.72225589E-05
   1.00000000      0.196551725      0.951314628      0.932531416      0.367103726       5.49980439E-04  0.313368708       2.21971422E-05
   1.00000000      0.206896558      0.951318920      0.932534158      0.367141664       4.84027987E-04  0.313401282       1.88108534E-05
   1.00000000      0.217241377      0.951322794      0.932536840      0.367163807       4.20773344E-04  0.313420296       1.59554183E-05
   1.00000000      0.227586210      0.951325715      0.932539105      0.367174834       3.60061036E-04  0.313429743       1.41356140E-05
   1.00000000      0.237931028      0.951327980      0.932541132      0.367178112       3.01769905E-04  0.313432485       1.29230320E-05
   1.00000000      0.248275861      0.951329947      0.932542741      0.367175847       2.45749921E-04  0.313430607       1.18054450E-05
   1.00000000      0.258620679      0.951331615      0.932544053      0.367169619       1.91763655E-04  0.313425303       1.07344240E-05
   1.00000000      0.268965513      0.951332748      0.932544827      0.367160499       1.39734184E-04  0.313417554       9.89064574E-06
   1.00000000      0.279310346      0.951333344      0.932545304      0.367149651       8.95201229E-05  0.313408315       9.51811671E-06
   1.00000000      0.289655179      0.951333523      0.932545245      0.367139250       4.13689886E-05  0.313399464       9.19960439E-06
  0.989898980      0.300000012      0.951349318      0.932566762      0.367115587       2.61327095E-05  0.313378245       8.99657607E-06
  0.979797959      0.300000012      0.951395690      0.932630599      0.367055655       2.74545819E-05  0.313324004       9.19774175E-06
  0.969696999      0.300000012      0.951439321      0.932690382      0.366997838       2.82602705E-05  0.313271821       9.09715891E-06
  0.959595978      0.300000012      0.951479673      0.932745695      0.366943657       2.86632603E-05  0.313222885       9.03569162E-06
  0.949494958      0.300000012      0.951515913      0.932795465      0.366894543       2.87465409E-05  0.313178569       9.06176865E-06
  0.939393938      0.300000012      0.951547801      0.932839155      0.366851747       2.85702063E-05  0.313139975       8.96491110E-06
  0.929292917      0.300000012      0.951574624      0.932875931      0.366816700       2.80493259E-05  0.313108265       8.94628465E-06
  0.919191897      0.300000012      0.951595724      0.932905018      0.366790682       2.71709850E-05  0.313084692       9.07108188E-06
  0.909090936      0.300000012      0.951610625      0.932925463      0.366775215       2.59737335E-05  0.313070506       9.07294452E-06
  0.898989916      0.300000012      0.951618731      0.932936490      0.366771638       2.43324521E-05  0.313066930       9.02637839E-06
  0.888888896      0.300000012      0.951619327      0.932937205      0.366781801       2.22532362E-05  0.313075572       8.89040530E-06
  0.878787875      0.300000012      0.951611698      0.932926714      0.366807312       1.96543060E-05  0.313097864       8.87550414E-06
  0.868686855      0.300000012      0.951595306      0.932903886      0.366849869       1.65504443E-05  0.313135296       8.53277743E-06
  0.858585835      0.300000012      0.951569378      0.932868123      0.366911262       1.28579959E-05  0.313189447       8.29435885E-06
  0.848484874      0.300000012      0.951533258      0.932818532      0.366993338       8.51451205E-06  0.313261896       8.27759504E-06
  0.838383853      0.300000012      0.951486349      0.932754338      0.367098182       3.53057635E-06  0.313354433       8.48062336E-06
  0.828282833      0.300000012      0.951428354      0.932674706      0.367227495      -2.16260833E-06  0.313468665       8.49738717E-06
  0.818181813      0.300000012      0.951358616      0.932578981      0.367383361      -8.58545172E-06  0.313606292       8.43778253E-06
  0.808080792      0.300000012      0.951276481      0.932466447      0.367567658      -1.57398299E-05  0.313769013       8.61100852E-06
  0.797979772      0.300000012      0.951181829      0.932336450      0.367782086      -2.36285887E-05  0.313958317       8.53464007E-06
  0.787878811      0.300000012      0.951073885      0.932188809      0.368028611      -3.22379237E-05  0.314175814       9.04873013E-06
  0.777777791      0.300000012      0.950952828      0.932022870      0.368308634      -4.15443574E-05  0.314422846       9.25548375E-06
  0.767676771      0.300000012      0.950818479      0.931838334      0.368623465      -5.14790663E-05  0.314700544       9.02079046E-06
  0.757575750      0.300000012      0.950670540      0.931635320      0.368974566      -6.20427527E-05  0.315010101       8.98353755E-06
  0.747474730      0.300000012      0.950509250      0.931413889      0.369362891      -7.31336477E-05  0.315352350       8.78050923E-06
  0.737373710      0.300000012      0.950334251      0.931173861      0.369789243      -8.46080511E-05  0.315727979       8.83080065E-06
  0.727272749      0.300000012      0.950145960      0.930915594      0.370253861      -9.64054125E-05  0.316137224       8.90158117E-06
  0.717171729      0.300000012      0.949945033      0.930640042      0.370756716      -1.08331653E-04  0.316579938       8.92393291E-06
  0.707070708      0.300000012      0.949731827      0.930347681      0.371297598      -1.20250217E-04  0.317056030       8.96677375E-06
  0.696969688      0.300000012      0.949507236      0.930039465      0.371875405      -1.31878813E-04  0.317564487       8.69296491E-06
  0.686868668      0.300000012      0.949272096      0.929716706      0.372488260      -1.42891367E-04  0.318103641       8.40425491E-06
  0.676767647      0.300000012      0.949027479      0.929381192      0.373133630      -1.53011104E-04  0.318671227       8.27200711E-06
  0.666666687      0.300000012      0.948774815      0.929035008      0.373808146      -1.61810807E-04  0.319264263       8.42474401E-06
  0.656565666      0.300000012      0.948516309      0.928680539      0.374507040      -1.68768413E-04  0.319878638       8.35023820E-06
  0.646464646      0.300000012      0.948253930      0.928320527      0.375224501      -1.73480090E-04  0.320509225       7.89016485E-06
  0.636363626      0.300000012      0.947989762      0.927958548      0.375953197      -1.75267196E-04  0.321149558       7.98515975E-06
  0.626262605      0.300000012      0.947727203      0.927598536      0.376684248      -1.73462337E-04  0.321791887       7.78399408E-06
  0.616161644      0.300000012      0.947469175      0.927244902      0.377407581      -1.67607373E-04  0.322427422       7.68899918E-06
  0.606060624      0.300000012      0.947219372      0.926902354      0.378111243      -1.57014802E-04  0.323045671       7.37048686E-06
  0.595959604      0.300000012      0.946981490      0.926576257      0.378782004      -1.41247074E-04  0.323635012       7.06687570E-06
  0.585858583      0.300000012      0.946759641      0.926272035      0.379406065      -1.20218414E-04  0.324183464       6.73718750E-06
  0.575757563      0.300000012      0.946557224      0.925994813      0.379969656      -9.41107210E-05  0.324678898       6.71483576E-06
  0.565656543      0.300000012      0.946377933      0.925749063      0.380458921      -6.34138123E-05  0.325109303       6.51367009E-06
  0.555555582      0.300000012      0.946224630      0.925539076      0.380861908      -2.90465960E-05  0.325464249       6.48386776E-06
  0.545454562      0.300000012      0.946099699      0.925367773      0.381168872       7.74257023E-06  0.325735182       6.21937215E-06
  0.535353541      0.300000012      0.946004212      0.925236940      0.381373048       4.55015543E-05  0.325916260       6.12251461E-06
  0.525252521      0.300000012      0.945938826      0.925147474      0.381470740       8.29745914E-05  0.326004237       6.23799860E-06
  0.515151501      0.300000012      0.945903540      0.925099313      0.381461114       1.19655946E-04  0.325998455       6.32740557E-06
  0.505050480      0.300000012      0.945898831      0.925092936      0.381344646       1.55760805E-04  0.325899243       6.44288957E-06
  0.494949490      0.300000012      0.945924282      0.925127745      0.381123096       1.91347703E-04  0.325708181       6.40749931E-06
  0.484848499      0.300000012      0.945978880      0.925202310      0.380800366       2.26024160E-04  0.325428665       6.16349280E-06
  0.474747479      0.300000012      0.946060896      0.925314665      0.380382329       2.59667751E-04  0.325065792       6.22682273E-06
  0.464646459      0.300000012      0.946168721      0.925462067      0.379875332       2.92984565E-04  0.324625164       5.98467886E-06
  0.454545468      0.300000012      0.946300745      0.925642610      0.379285038       3.26060981E-04  0.324111730       5.67920506E-06
  0.444444448      0.300000012      0.946454465      0.925852597      0.378618449       3.57336190E-04  0.323531747       5.11482358E-06
  0.434343427      0.300000012      0.946626008      0.926087320      0.377885252       3.84729792E-04  0.322893560       4.88385558E-06
  0.424242437      0.300000012      0.946811855      0.926341593      0.377098113       4.06715815E-04  0.322208405       4.58955765E-06
  0.414141417      0.300000012      0.947007895      0.926610112      0.376270980       4.22528188E-04  0.321488380       4.56348062E-06
  0.404040396      0.300000012      0.947210848      0.926887810      0.375417709       4.32128640E-04  0.320745677       4.26732004E-06
  0.393939406      0.300000012      0.947417557      0.927170515      0.374551535       4.36009315E-04  0.319991708       3.71411443E-06
  0.383838385      0.300000012      0.947624922      0.927454293      0.373684287       4.34572430E-04  0.319236904       3.31737101E-06
  0.373737365      0.300000012      0.947830737      0.927736223      0.372826070       4.28438303E-04  0.318489909       3.23168933E-06
  0.363636374      0.300000012      0.948033512      0.928013623      0.371985704       4.18433949E-04  0.317758530       2.74367630E-06
  0.353535354      0.300000012      0.948231697      0.928284883      0.371170372       4.05226543E-04  0.317048848       2.36928463E-06
  0.343434334      0.300000012      0.948424518      0.928548932      0.370385438       3.89662746E-04  0.316365510       2.13831663E-06
  0.333333343      0.300000012      0.948611438      0.928805113      0.369634688       3.72365350E-04  0.315711796       2.08429992E-06
  0.323232323      0.300000012      0.948792934      0.929053545      0.368920714       3.53807671E-04  0.315089971       1.63912773E-06
  0.313131303      0.300000012      0.948968589      0.929294348      0.368245393       3.34378303E-04  0.314501554       1.68196857E-06
  0.303030312      0.300000012      0.949139059      0.929527998      0.367609411       3.14449455E-04  0.313947111       1.58511102E-06
  0.292929292      0.300000012      0.949304998      0.929755330      0.367012650       2.94372818E-04  0.313426465       1.41561031E-06
  0.282828271      0.300000012      0.949466884      0.929977179      0.366454512       2.74338294E-04  0.312939197       1.23493373E-06
  0.272727281      0.300000012      0.949625552      0.930194616      0.365934014       2.54570361E-04  0.312484264       1.08964741E-06
  0.262626261      0.300000012      0.949781895      0.930409014      0.365449548       2.35285450E-04  0.312060297       1.07660890E-06
  0.252525240      0.300000012      0.949936807      0.930621386      0.364999473       2.16594330E-04  0.311665773       1.01700425E-06
  0.242424250      0.300000012      0.950090945      0.930832803      0.364581853       1.98697482E-04  0.311299086       9.53674316E-07
  0.232323229      0.300000012      0.950245380      0.931044519      0.364194363       1.81624273E-04  0.310958117       8.60542059E-07
  0.222222224      0.300000012      0.950400889      0.931257665      0.363834739       1.65469814E-04  0.310640931       6.81728125E-07
  0.212121218      0.300000012      0.950558186      0.931473315      0.363500655       1.50332606E-04  0.310345441       5.47617674E-07
  0.202020198      0.300000012      0.950717628      0.931692064      0.363189608       1.36235205E-04  0.310069472       5.45755029E-07
  0.191919193      0.300000012      0.950880051      0.931914747      0.362899035       1.23180260E-04  0.309810817       3.18512321E-07
  0.181818187      0.300000012      0.951045990      0.932142079      0.362626761       1.11290195E-04  0.309567660      -1.30385160E-08
  0.171717167      0.300000012      0.951215565      0.932374775      0.362370610       1.00431222E-04  0.309337974       5.58793545E-09
  0.161616161      0.300000012      0.951388836      0.932612717      0.362128198       9.07115827E-05  0.309119731       1.80676579E-07
  0.151515156      0.300000012      0.951566398      0.932856202      0.361897647       8.19467168E-05  0.308911413      -4.47034836E-08
  0.141414136      0.300000012      0.951747715      0.933105230      0.361677647       7.40941759E-05  0.308711827       9.68575478E-08
  0.131313130      0.300000012      0.951933146      0.933359683      0.361466795       6.70669688E-05  0.308519840       5.58793545E-08
  0.121212125      0.300000012      0.952122390      0.933619559      0.361263901       6.07956317E-05  0.308334380       1.00582838E-07
  0.111111112      0.300000012      0.952315092      0.933883965      0.361068636       5.51087142E-05  0.308155298      -7.07805157E-08
  0.101010099      0.300000012      0.952510595      0.934152544      0.360880613       4.99440175E-05  0.307982147       1.22934580E-07
   9.09090936E-02  0.300000012      0.952708662      0.934424520      0.360699445       4.53555440E-05  0.307814747       1.56462193E-07
   8.08080807E-02  0.300000012      0.952908516      0.934699118      0.360525221       4.11764340E-05  0.307653129       2.88709998E-07
   7.07070678E-02  0.300000012      0.953109682      0.934975266      0.360357940       3.74925694E-05  0.307497412       2.03028321E-07
   6.06060624E-02  0.300000012      0.953311265      0.935252249      0.360197753       3.43126521E-05  0.307347715       2.98023224E-07
   5.05050495E-02  0.300000012      0.953512669      0.935528815      0.360044360       3.16251426E-05  0.307203859       2.55182385E-07
   4.04040404E-02  0.300000012      0.953713119      0.935804009      0.359897643       2.95230602E-05  0.307065755       5.96046448E-08
   3.03030312E-02  0.300000012      0.953911483      0.936076462      0.359757543       2.79997894E-05  0.306933463       3.72529030E-08
   2.02020202E-02  0.300000012      0.954106987      0.936345160      0.359623998       2.68358563E-05  0.306806952       1.15483999E-07
   1.01010101E-02  0.300000012      0.954297960      0.936607480      0.359498620       2.50453431E-05  0.306687742       5.02914190E-08
   0.00000000      0.289655179      0.954443932      0.936807930      0.359398812       1.04023629E-05  0.306593239      -1.02445483E-07
   0.00000000      0.279310346      0.954447567      0.936812937      0.359386712       4.02468186E-06  0.306582659      -3.16649675E-08
   0.00000000      0.268965513      0.954449832      0.936816156      0.359380364      -8.75270132E-07  0.306577086       3.72529030E-08
   0.00000000      0.258620679      0.954451561      0.936818540      0.359378338      -5.16669479E-06  0.306575239       4.47034836E-08
   0.00000000      0.248275861      0.954452693      0.936819851      0.359379917      -9.34000218E-06  0.306576550      -1.76951289E-07
   0.00000000      0.237931028      0.954453051      0.936820567      0.359385163      -1.37478464E-05  0.306580961       2.79396772E-08
   0.00000000      0.227586210      0.954452932      0.936820269      0.359394073      -1.84397122E-05  0.306588590      -1.00582838E-07
   0.00000000      0.217241377      0.954451740      0.936818719      0.359407365      -2.34493000E-05  0.306600004      -3.35276127E-08
   0.00000000      0.206896558      0.954449594      0.936815798      0.359425157      -2.90593180E-05  0.306615293       2.42143869E-08
   0.00000000      0.196551725      0.954446316      0.936811507      0.359448284      -3.52063034E-05  0.306635231       2.40281224E-07
   0.00000000      0.186206892      0.954442024      0.936805189      0.359477401      -4.21794284E-05  0.306660414      -2.06753612E-07
   0.00000000      0.175862074      0.954435766      0.936796784      0.359513581      -4.99322414E-05  0.306691647      -2.04890966E-08
   0.00000000      0.165517241      0.954427540      0.936785460      0.359557658      -5.85810340E-05  0.306729764      -3.16649675E-08
   0.00000000      0.155172408      0.954416990      0.936771035      0.359611034      -6.84926199E-05  0.306775957       9.12696123E-08
   0.00000000      0.144827589      0.954403937      0.936753094      0.359674931      -7.95747110E-05  0.306831330       1.30385160E-08
   0.00000000      0.134482756      0.954387665      0.936730921      0.359750748      -9.21076426E-05  0.306897014       2.17929482E-07
   0.00000000      0.124137931      0.954368055      0.936703742      0.359839976      -1.06059495E-04  0.306974411       7.45058060E-09
   0.00000000      0.113793105      0.954344273      0.936671197      0.359944731      -1.21921672E-04  0.307065308       1.30385160E-07
   0.00000000      0.103448279      0.954316080      0.936632276      0.360066980      -1.39715834E-04  0.307171434      -8.38190317E-08
   0.00000000       9.31034461E-02  0.954282343      0.936586022      0.360209078      -1.59835312E-04  0.307294846       3.35276127E-08
   0.00000000       8.27586204E-02  0.954242766      0.936531663      0.360373557      -1.82265925E-04  0.307437718       1.21071935E-07
   0.00000000       7.24137947E-02  0.954196692      0.936468244      0.360563248      -2.07309015E-04  0.307602555       0.00000000    
   0.00000000       6.20689653E-02  0.954143047      0.936394513      0.360781133      -2.35038897E-04  0.307791948      -4.84287739E-08
   0.00000000       5.17241396E-02  0.954080820      0.936309159      0.361030966      -2.65198178E-04  0.308009088       1.06170774E-07
   0.00000000       4.13793102E-02  0.954009533      0.936211169      0.361316532      -2.96668208E-04  0.308257312       5.02914190E-08
   0.00000000       3.10344826E-02  0.953928173      0.936099350      0.361642212      -3.26681620E-04  0.308540463       3.72529030E-08
   0.00000000       2.06896551E-02  0.953835964      0.935972810      0.362013042      -3.48353438E-04  0.308862835       1.13621354E-07
   0.00000000       1.03448275E-02  0.953733504      0.935832083      0.362434715      -3.45084030E-04  0.309229225       1.37835741E-07
   1.01942774E-02  -1.06002917E-05  0.953692675      0.935775876      0.362581015      -5.48448123E-04  0.309356898       9.31322575E-09
   2.03885511E-02  -4.05888240E-05  0.953701973      0.935788751      0.362500578      -1.14468904E-03  0.309288859       1.19209290E-07
   3.05827484E-02  -8.74972393E-05  0.953753471      0.935859740      0.362290144      -1.69266469E-03  0.309107780       3.91155481E-07
   4.07768898E-02  -1.49138228E-04  0.953830421      0.935965598      0.361992270      -2.17577512E-03  0.308850825       5.58793545E-07
   5.09709269E-02  -2.23550553E-04  0.953924894      0.936095476      0.361630827      -2.59558926E-03  0.308538675       6.72414899E-07
   6.11648858E-02  -3.08956922E-04  0.954032600      0.936243474      0.361220062      -2.95587862E-03  0.308183670       7.04079866E-07
   7.13587478E-02  -4.03728453E-04  0.954150140      0.936405241      0.360769540      -3.26038222E-03  0.307793915       9.79751348E-07
   8.15525427E-02  -5.06357115E-04  0.954275787      0.936578035      0.360285670      -3.51266074E-03  0.307375014       1.14366412E-06
   9.17462707E-02  -6.15430705E-04  0.954408407      0.936760068      0.359772831      -3.71555192E-03  0.306930780       9.48086381E-07
  0.101939946      -7.29613879E-04  0.954546630      0.936950147      0.359234154      -3.87149397E-03  0.306463808       1.06729567E-06
  0.112133577      -8.47629446E-04  0.954690218      0.937147558      0.358671337      -3.98220401E-03  0.305975497       1.21630728E-06
  0.122327171      -9.68243345E-04  0.954838514      0.937351644      0.358085513      -4.04918566E-03  0.305466920       1.50129199E-06
  0.132520750      -1.09024998E-03  0.954991639      0.937562406      0.357476860      -4.07319376E-03  0.304938167       1.84401870E-06
  0.142714337      -1.21245917E-03  0.955149949      0.937780201      0.356844991      -4.05475125E-03  0.304388940       2.00234354E-06
  0.152907923      -1.33368257E-03  0.955313683      0.938005209      0.356188685      -3.99388373E-03  0.303818166       1.99489295E-06
  0.163101539      -1.45272142E-03  0.955482781      0.938237727      0.355506390      -3.89013882E-03  0.303224564       2.02655792E-06
  0.173295200      -1.56835280E-03  0.955658138      0.938478529      0.354795665      -3.74262105E-03  0.302606016       1.77510083E-06
  0.183488905      -1.67931605E-03  0.955839813      0.938728631      0.354053795      -3.54992878E-03  0.301960170       2.08429992E-06
  0.193682685      -1.78429752E-03  0.956028700      0.938988507      0.353277385      -3.31025617E-03  0.301284105       2.24448740E-06
  0.203876525      -1.88191328E-03  0.956225693      0.939259768      0.352462173      -3.02108563E-03  0.300574273       2.67289579E-06
  0.214070454      -1.97069068E-03  0.956431687      0.939543188      0.351603508      -2.67936662E-03  0.299826771       2.79210508E-06
  0.224264458      -2.04904471E-03  0.956647396      0.939840257      0.350695997      -2.28119502E-03  0.299037009       3.24100256E-06
  0.234458551      -2.11525219E-03  0.956874371      0.940152586      0.349733114      -1.82190479E-03  0.298199534       3.34344804E-06
  0.244652733      -2.16741930E-03  0.957113564      0.940482080      0.348707795      -1.29557576E-03  0.297308326       3.81469727E-06
  0.254846990      -2.20344099E-03  0.957366943      0.940831244      0.347611219      -6.95082592E-04  0.296356171       4.45544720E-06
  0.265041292      -2.22095218E-03  0.957636356      0.941202402      0.346433133      -1.14702452E-05  0.295334518       4.95649874E-06
  0.275235593      -2.21726228E-03  0.957924128      0.941598833      0.345161349       7.66324811E-04  0.294233292       5.46127558E-06
  0.285429865      -2.18927371E-03  0.958233178      0.942024648      0.343781233       1.65195123E-03  0.293040484       5.93252480E-06
  0.295624018      -2.13337177E-03  0.958566487      0.942484319      0.342274934       2.66305264E-03  0.291741550       6.86012208E-06
  0.305817962      -2.04527588E-03  0.958928585      0.942984045      0.340620309       3.82190547E-03  0.290318549       8.25710595E-06
  0.316011488      -1.91983546E-03  0.959324896      0.943530858      0.338789612       5.15796943E-03  0.288749456       9.46037471E-06
  0.326204360      -1.75073801E-03  0.959761918      0.944133997      0.336747915       6.71010511E-03  0.287006706       1.09001994E-05
  0.336396307      -1.53008103E-03  0.960247934      0.944805264      0.334450305       8.53162538E-03  0.285055488       1.27851963E-05
  0.346586645      -1.24772848E-03  0.960793078      0.945559144      0.331838697       1.06976479E-02  0.282851905       1.58157200E-05
  0.356774658      -8.90274358E-04  0.961411297      0.946414411      0.328836054       1.33178532E-02  0.280340135       1.94106251E-05
  0.366958946      -4.39326104E-04  0.962120533      0.947396517      0.325340450       1.65811125E-02  0.277450919       2.41659582E-05
  0.377137065       1.33766516E-04  0.962961376      0.948563695      0.321262628       2.13350989E-02  0.274171889       3.24212015E-05
  0.387299746       9.32033930E-04  0.963803589      0.949736714      0.317264706       2.85159200E-02  0.271204948       4.43998724E-05
  0.397434235       2.03104783E-03  0.964377224      0.950544000      0.314094245       3.77039202E-02  0.269302249       6.10053539E-05
  0.407523632       3.48527054E-03  0.964575589      0.950842202      0.312056273       4.87823039E-02  0.268859595       8.67377967E-05
  0.417543113       5.36030158E-03  0.964280427      0.950475454      0.311584443       6.22291975E-02  0.270480633       1.29472464E-04
  0.427456856       7.73026003E-03  0.963212013      0.949074507      0.313646376       7.87110552E-02  0.275327265       2.06446275E-04
  0.437217921       1.06651187E-02  0.960845470      0.945949316      0.320084959       9.88336876E-02  0.285343975       3.52077186E-04
  0.446780443       1.41935814E-02  0.956240475      0.939860880      0.334152460      0.122283019      0.303335667       6.20746985E-04
  0.456144422       1.82216074E-02  0.947963655      0.928900480      0.360640943      0.145442605      0.332005531       1.06110424E-03
  0.465438336       2.24102195E-02  0.934833765      0.911479533      0.402890831      0.157949075      0.370392889       1.65506080E-03
  0.474928796       2.61229333E-02  0.918531835      0.889865458      0.454043716      0.145018488      0.409271747       2.28516385E-03
  0.484786808       2.86871437E-02  0.904730976      0.871709764      0.495186895      0.102575794      0.435413808       2.86595896E-03
  0.494905144       2.98680626E-02  0.898006022      0.863193631      0.512684941       4.67125028E-02  0.443779558       3.49365175E-03
  0.505094886       2.98680626E-02  0.897180855      0.862731576      0.509513319      -7.74290133E-03  0.439181268       4.24526632E-03
  0.515213192       2.86871418E-02  0.898881733      0.866024852      0.490495086      -6.24939948E-02  0.425748825       5.40361926E-03
  0.525071204       2.61229314E-02  0.903096378      0.873126745      0.455146611     -0.114014529      0.403302908       7.02184439E-03
  0.534561634       2.24102195E-02  0.911456585      0.885810316      0.409391165     -0.145122111      0.372370511       8.54338706E-03
  0.543855608       1.82216056E-02  0.923015296      0.902468979      0.365055114     -0.146577895      0.336232781       9.53227654E-03
  0.553219557       1.41935805E-02  0.934053659      0.918098867      0.330363750     -0.127557084      0.301887423       1.00597143E-02
  0.562782109       1.06651178E-02  0.941899836      0.929150164      0.307263315     -0.103077747      0.275780767       1.03140026E-02
  0.572543144       7.73025956E-03  0.946566164      0.935711026      0.293644339      -8.12229440E-02  0.258982927       1.04315560E-02
  0.582456887       5.36030112E-03  0.949092448      0.939267278      0.286420047      -6.36403561E-02  0.249266133       1.04934685E-02
  0.592476368       3.48527008E-03  0.950349033      0.941040099      0.283234745      -4.97214422E-02  0.244236648       1.05267726E-02