 title = "grid"
                                   variables = "x","y","rho","P","u","v","M","S"
 zone n=        3000  e =        5742  et=quadrilateral, f=fepoint
   0.00000000       0.00000000      0.953632116      0.935692608      0.362736166      -2.99601728E-04  0.309493005      -2.98023224E-08
   1.00000000       0.00000000      0.944385767      0.932311356      0.320213914       5.75594371E-04  0.272377431       1.00202709E-02
   1.00000000      0.300000012      0.951319456      0.932526052      0.367695957       1.20990171E-05  0.313875586       9.34861600E-06
   0.00000000      0.300000012      0.953810453      0.935937822      0.361985177       2.11262177E-05  0.308840543       1.82539225E-07
   1.00000000       1.03448275E-02  0.945928395      0.932370126      0.326992363       8.60839849E-04  0.278362066       7.79833272E-03
   1.00000000       2.06896551E-02  0.947691023      0.932410061      0.335343331       1.11031951E-03  0.285731375       5.23485430E-03
   1.00000000       3.10344826E-02  0.948858738      0.932438672      0.341751993       1.25179486E-03  0.291367143       3.54157574E-03
   1.00000000       4.13793102E-02  0.949648559      0.932459414      0.346982569       1.32089213E-03  0.295946538       2.39893049E-03
   1.00000000       5.17241396E-02  0.950185299      0.932474673      0.351290435       1.34019938E-03  0.299703002       1.62425078E-03
   1.00000000       6.20689653E-02  0.950549304      0.932486117      0.354810029       1.32454303E-03  0.302761763       1.10029988E-03
   1.00000000       7.24137947E-02  0.950795889      0.932494760      0.357656240       1.28438976E-03  0.305228502       7.46428967E-04
   1.00000000       8.27586204E-02  0.950961888      0.932501614      0.359927863       1.22757151E-03  0.307192564       5.09401783E-04
   1.00000000       9.31034461E-02  0.951073349      0.932506800      0.361716360       1.15964108E-03  0.308736056       3.50929797E-04
   1.00000000      0.103448279      0.951148033      0.932510912      0.363106489       1.08477159E-03  0.309933871       2.45328993E-04
   1.00000000      0.113793105      0.951198757      0.932514012      0.364175439       1.00611406E-03  0.310853839       1.74030662E-04
   1.00000000      0.124137931      0.951233566      0.932516634      0.364991158       9.26147331E-04  0.311555207       1.25579536E-04
   1.00000000      0.134482756      0.951257229      0.932518542      0.365611225       8.46565701E-04  0.312087923       9.28398222E-05
   1.00000000      0.144827589      0.951274097      0.932520032      0.366082013       7.68772734E-04  0.312492132       6.96461648E-05
   1.00000000      0.155172408      0.951286256      0.932521462      0.366440833       6.93767797E-04  0.312800050       5.32828271E-05
   1.00000000      0.165517241      0.951295078      0.932522416      0.366716355       6.22285064E-04  0.313036382       4.12967056E-05
   1.00000000      0.175862074      0.951301396      0.932523370      0.366930217       5.54671919E-04  0.313219756       3.29725444E-05
   1.00000000      0.186206892      0.951306045      0.932524145      0.367098838       4.91038605E-04  0.313364267       2.70195305E-05
   1.00000000      0.196551725      0.951309741      0.932524621      0.367233545       4.31531545E-04  0.313479722       2.20481306E-05
   1.00000000      0.206896558      0.951312602      0.932525098      0.367342353       3.75997566E-04  0.313572943       1.83545053E-05
   1.00000000      0.217241377      0.951314628      0.932525694      0.367430776       3.24320514E-04  0.313648611       1.60560012E-05
   1.00000000      0.227586210      0.951316416      0.932525933      0.367502540       2.76173319E-04  0.313710093       1.36550516E-05
   1.00000000      0.237931028      0.951317728      0.932526410      0.367560267       2.31206621E-04  0.313759446       1.22580677E-05
   1.00000000      0.248275861      0.951318562      0.932527006      0.367605686       1.88814185E-04  0.313798219       1.16620213E-05
   1.00000000      0.258620679      0.951319695      0.932527304      0.367639840       1.48611012E-04  0.313827515       1.02557242E-05
   1.00000000      0.268965513      0.951320469      0.932527781      0.367663622       1.09951150E-04  0.313847870       9.71555710E-06
   1.00000000      0.279310346      0.951321304      0.932528317      0.367677450       7.20461030E-05  0.313859731       9.05618072E-06
   1.00000000      0.289655179      0.951321900      0.932529211      0.367683500       3.37693527E-05  0.313864827       9.10088420E-06
  0.989898980      0.300000012      0.951332092      0.932543099      0.367666721       2.01431540E-05  0.313849866       9.01706517E-06
  0.979797959      0.300000012      0.951362908      0.932585359      0.367613137       1.73069475E-05  0.313802063       8.93697143E-06
  0.969696999      0.300000012      0.951395810      0.932630479      0.367561281       1.45384283E-05  0.313755661       8.90716910E-06
  0.959595978      0.300000012      0.951430738      0.932678461      0.367511243       1.16835099E-05  0.313710630       9.01333988E-06
  0.949494958      0.300000012      0.951467335      0.932728887      0.367463976       8.63604691E-06  0.313667834       9.18097794E-06
  0.939393938      0.300000012      0.951505661      0.932781339      0.367420167       5.33557295E-06  0.313627928       8.98726285E-06
  0.929292917      0.300000012      0.951544940      0.932835162      0.367381036       1.79192864E-06  0.313591957       8.97608697E-06
  0.919191897      0.300000012      0.951585114      0.932890236      0.367347598      -2.00897375E-06  0.313560784       8.85315239E-06
  0.909090936      0.300000012      0.951625645      0.932945788      0.367321074      -6.14397322E-06  0.313535482       8.78423452E-06
  0.898989916      0.300000012      0.951665938      0.933001101      0.367302865      -1.07053575E-05  0.313517272       8.81776214E-06
  0.888888896      0.300000012      0.951705754      0.933055639      0.367294282      -1.56616425E-05  0.313507348       8.67247581E-06
  0.878787875      0.300000012      0.951744139      0.933108389      0.367297232      -2.10140151E-05  0.313507318       8.78237188E-06
  0.868686855      0.300000012      0.951780975      0.933158636      0.367312998      -2.68071199E-05  0.313518405       8.43778253E-06
  0.858585835      0.300000012      0.951815069      0.933205366      0.367343783      -3.31525844E-05  0.313542485       8.32416117E-06
  0.848484874      0.300000012      0.951845944      0.933247983      0.367391199      -4.00065073E-05  0.313580841       8.61287117E-06
  0.838383853      0.300000012      0.951872885      0.933284998      0.367457241      -4.73281289E-05  0.313635439       8.65943730E-06
  0.828282833      0.300000012      0.951894939      0.933315575      0.367543906      -5.52140409E-05  0.313707888       8.91834497E-06
  0.818181813      0.300000012      0.951911688      0.933338702      0.367653370      -6.36749828E-05  0.313800216       9.13441181E-06
  0.808080792      0.300000012      0.951922178      0.933353066      0.367787570      -7.26885919E-05  0.313914090       9.02265310E-06
  0.797979772      0.300000012      0.951925278      0.933357179      0.367948681      -8.22494039E-05  0.314051390       8.87364149E-06
  0.787878811      0.300000012      0.951920331      0.933350503      0.368138909      -9.24194537E-05  0.314214081       9.01333988E-06
  0.777777791      0.300000012      0.951906443      0.933331430      0.368360221      -1.03065533E-04  0.314403892       9.01706517E-06
  0.767676771      0.300000012      0.951882839      0.933299005      0.368614584      -1.14243943E-04  0.314622581       8.95559788E-06
  0.757575750      0.300000012      0.951848567      0.933251977      0.368904024      -1.25891456E-04  0.314871877       9.02637839E-06
  0.747474730      0.300000012      0.951803029      0.933189452      0.369230270      -1.37973475E-04  0.315153360       9.01892781E-06
  0.737373710      0.300000012      0.951745450      0.933110356      0.369594872      -1.50334075E-04  0.315468431       8.96118581E-06
  0.727272749      0.300000012      0.951675236      0.933014154      0.369998872      -1.62884171E-04  0.315817863       9.09529626E-06
  0.717171729      0.300000012      0.951592207      0.932900190      0.370443046      -1.75521898E-04  0.316202551       9.09715891E-06
  0.707070708      0.300000012      0.951496422      0.932768404      0.370927960      -1.87951140E-04  0.316622853       8.74698162E-06
  0.696969688      0.300000012      0.951387405      0.932618737      0.371453136      -1.99946633E-04  0.317078441       8.66502523E-06
  0.686868668      0.300000012      0.951265514      0.932451308      0.372017354      -2.11142979E-04  0.317568213       8.54954123E-06
  0.676767647      0.300000012      0.951131165      0.932266951      0.372618377      -2.21224967E-04  0.318090260       8.55326653E-06
  0.666666687      0.300000012      0.950985610      0.932066977      0.373252690      -2.29659185E-04  0.318641573       8.29063356E-06
  0.656565666      0.300000012      0.950829983      0.931853056      0.373916090      -2.35914486E-04  0.319218427       7.89575279E-06
  0.646464646      0.300000012      0.950665772      0.931627691      0.374602258      -2.39458619E-04  0.319815308       7.83056021E-06
  0.636363626      0.300000012      0.950495064      0.931393445      0.375303686      -2.39714864E-04  0.320425659       7.76723027E-06
  0.626262605      0.300000012      0.950320542      0.931153834      0.376011163      -2.36059874E-04  0.321041495       7.55116343E-06
  0.616161644      0.300000012      0.950145185      0.930912912      0.376714140      -2.27981407E-04  0.321653605       7.15628266E-06
  0.606060624      0.300000012      0.949972212      0.930675328      0.377400547      -2.14898566E-04  0.322251499       6.79306686E-06
  0.595959604      0.300000012      0.949805319      0.930446446      0.378057092      -1.96369641E-04  0.322823435       6.79492950E-06
  0.585858583      0.300000012      0.949648678      0.930231392      0.378669679      -1.72422035E-04  0.323357224       6.49131835E-06
  0.575757563      0.300000012      0.949505746      0.930035353      0.379224509      -1.43333484E-04  0.323840737       6.45779073E-06
  0.565656543      0.300000012      0.949379981      0.929863036      0.379708320      -1.09670415E-04  0.324262440       6.62542880E-06
  0.555555582      0.300000012      0.949274719      0.929718733      0.380108982      -7.24165293E-05  0.324611783       6.67944551E-06
  0.545454562      0.300000012      0.949192286      0.929605901      0.380417347      -3.28846509E-05  0.324880749       6.91786408E-06
  0.535353541      0.300000012      0.949134409      0.929526150      0.380626559       7.60864850E-06  0.325063407       6.47269189E-06
  0.525252521      0.300000012      0.949101746      0.929481328      0.380732983       4.77350513E-05  0.325156569       6.41494989E-06
  0.515151501      0.300000012      0.949094772      0.929471552      0.380735397       8.70324366E-05  0.325159162       6.19515777E-06
  0.505050480      0.300000012      0.949113548      0.929497302      0.380633831       1.25678911E-04  0.325071156       6.19143248E-06
  0.494949490      0.300000012      0.949158490      0.929558814      0.380429298       1.63929188E-04  0.324893445       6.05173409E-06
  0.484848499      0.300000012      0.949228704      0.929654896      0.380124599       2.01448463E-04  0.324628443       5.85801899E-06
  0.474747479      0.300000012      0.949322701      0.929783642      0.379724801       2.38000415E-04  0.324280620       5.76302409E-06
  0.464646459      0.300000012      0.949439228      0.929943204      0.379235655       2.74440128E-04  0.323855042       5.45568764E-06
  0.454545468      0.300000012      0.949576437      0.930131555      0.378662348       3.10729811E-04  0.323356092       5.72018325E-06
  0.444444448      0.300000012      0.949732482      0.930345595      0.378011465       3.45353386E-04  0.322789669       5.77233732E-06
  0.434343427      0.300000012      0.949903965      0.930580437      0.377292961       3.76235577E-04  0.322164595       5.41657209E-06
  0.424242437      0.300000012      0.950087249      0.930831492      0.376519471       4.01713129E-04  0.321491778       5.00865281E-06
  0.414141417      0.300000012      0.950278044      0.931092799      0.375705212       4.21072327E-04  0.320783734       4.56161797E-06
  0.404040396      0.300000012      0.950472653      0.931359410      0.374864280       4.34225076E-04  0.320052743       4.24496830E-06
  0.393939406      0.300000012      0.950667560      0.931626439      0.374010354       4.41494281E-04  0.319310635       3.85753810E-06
  0.383838385      0.300000012      0.950859725      0.931889772      0.373155534       4.43407596E-04  0.318567991       3.46079469E-06
  0.373737365      0.300000012      0.951046288      0.932145834      0.372310877       4.40571457E-04  0.317834407       3.56696546E-06
  0.363636374      0.300000012      0.951225281      0.932391107      0.371485829       4.33622656E-04  0.317118227       3.21678817E-06
  0.353535354      0.300000012      0.951394796      0.932623327      0.370688289       4.23332269E-04  0.316426158       2.78279185E-06
  0.343434334      0.300000012      0.951553524      0.932840645      0.369924426       4.10525099E-04  0.315763682       2.19978392E-06
  0.333333343      0.300000012      0.951700389      0.933042169      0.369199008       3.95660609E-04  0.315134764       2.10665166E-06
  0.323232323      0.300000012      0.951834500      0.933226645      0.368515462       3.79267527E-04  0.314542353       2.52388418E-06
  0.313131303      0.300000012      0.951956332      0.933393598      0.367876291       3.61796381E-04  0.313988775       2.28919089E-06
  0.303030312      0.300000012      0.952065647      0.933543324      0.367283016       3.43553140E-04  0.313475251       1.87382102E-06
  0.292929292      0.300000012      0.952162445      0.933675885      0.366736174       3.24898225E-04  0.313002169       1.58511102E-06
  0.282828271      0.300000012      0.952247143      0.933792174      0.366235793       3.06041649E-04  0.312569529       1.54972076E-06
  0.272727281      0.300000012      0.952320397      0.933892488      0.365781069       2.87257077E-04  0.312176704       1.29826367E-06
  0.262626261      0.300000012      0.952383101      0.933978498      0.365370482       2.68857519E-04  0.311822116       1.22375786E-06
  0.252525240      0.300000012      0.952436149      0.934051096      0.365002275       2.50865472E-04  0.311504453       9.31322575E-07
  0.242424250      0.300000012      0.952480614      0.934112012      0.364674211       2.33475410E-04  0.311221600       7.97212124E-07
  0.232323229      0.300000012      0.952517927      0.934162855      0.364383578       2.16814340E-04  0.310971171       3.83704901E-07
  0.222222224      0.300000012      0.952548683      0.934205174      0.364127547       2.00906929E-04  0.310750633       4.73111868E-07
  0.212121218      0.300000012      0.952574730      0.934240580      0.363903075       1.85949029E-04  0.310557395       1.21071935E-07
  0.202020198      0.300000012      0.952597082      0.934271395      0.363707036       1.71839813E-04  0.310388625       2.81259418E-07
  0.191919193      0.300000012      0.952617168      0.934299052      0.363536239       1.58506096E-04  0.310241580       3.52039933E-07
  0.181818187      0.300000012      0.952636302      0.934325278      0.363387644       1.46083767E-04  0.310113460       2.71946192E-07
  0.171717167      0.300000012      0.952655971      0.934352040      0.363258421       1.34452173E-04  0.310001999       4.47034836E-08
  0.161616161      0.300000012      0.952676833      0.934380949      0.363145858       1.23520775E-04  0.309904546       2.62632966E-07
  0.151515156      0.300000012      0.952700615      0.934413552      0.363047183       1.13264665E-04  0.309818774       2.60770321E-07
  0.141414136      0.300000012      0.952728093      0.934451222      0.362960219       1.03671162E-04  0.309742779       2.12341547E-07
  0.131313130      0.300000012      0.952760041      0.934495509      0.362882793       9.46636646E-05  0.309674561       6.55651093E-07
  0.121212125      0.300000012      0.952797949      0.934547365      0.362812698       8.62325032E-05  0.309612304       4.06056643E-07
  0.111111112      0.300000012      0.952842236      0.934608042      0.362748116       7.83013165E-05  0.309554309       2.99885869E-07
  0.101010099      0.300000012      0.952893436      0.934678495      0.362687230       7.09881206E-05  0.309499025       4.33996320E-07
   9.09090936E-02  0.300000012      0.952952206      0.934759259      0.362628192       6.42515952E-05  0.309444845       4.97326255E-07
   8.08080807E-02  0.300000012      0.953019083      0.934851110      0.362569213       5.81582317E-05  0.309390157       4.95463610E-07
   7.07070678E-02  0.300000012      0.953094304      0.934954286      0.362508565       5.26765325E-05  0.309333533       3.31550837E-07
   6.06060624E-02  0.300000012      0.953178108      0.935069323      0.362444818       4.78172224E-05  0.309273720       2.86847353E-07
   5.05050495E-02  0.300000012      0.953270435      0.935196161      0.362376571       4.34896683E-05  0.309209466       2.99885869E-07
   4.04040404E-02  0.300000012      0.953371227      0.935334504      0.362302780       3.95837087E-05  0.309139967       2.47731805E-07
   3.03030312E-02  0.300000012      0.953480303      0.935484171      0.362223148       3.58947545E-05  0.309064984       3.91155481E-08
   2.02020202E-02  0.300000012      0.953597009      0.935644269      0.362137944       3.21219413E-05  0.308984786      -1.99303031E-07
   1.01010101E-02  0.300000012      0.953719676      0.935813069      0.362049252       2.72921079E-05  0.308901101       1.84401870E-07
   0.00000000      0.289655179      0.953819573      0.935950339      0.361969650       2.45041811E-05  0.308826715       1.91852450E-07
   0.00000000      0.279310346      0.953825712      0.935958624      0.361946702       3.17933955E-05  0.308806747       5.21540642E-08
   0.00000000      0.268965513      0.953834236      0.935970426      0.361913979       3.93488590E-05  0.308778286       1.13621354E-07
   0.00000000      0.258620679      0.953845680      0.935985982      0.361871094       4.66452875E-05  0.308740973      -7.26431608E-08
   0.00000000      0.248275861      0.953859508      0.936004937      0.361818522       5.33590501E-05  0.308695227      -9.49949026E-08
   0.00000000      0.237931028      0.953875601      0.936027169      0.361757159       5.89810006E-05  0.308641791       1.30385160E-08
   0.00000000      0.227586210      0.953893960      0.936052442      0.361687779       6.34489479E-05  0.308581412       9.87201929E-08
   0.00000000      0.217241377      0.953913867      0.936079800      0.361612082       6.64995387E-05  0.308515549       1.43423676E-07
   0.00000000      0.206896558      0.953934968      0.936108828      0.361531526       6.81773454E-05  0.308445424       1.54599547E-07
   0.00000000      0.196551725      0.953957140      0.936139345      0.361447603       6.81148158E-05  0.308372438       2.10478902E-07
   0.00000000      0.186206892      0.953979492      0.936169922      0.361362517       6.60424921E-05  0.308298409       7.07805157E-08
   0.00000000      0.175862074      0.954001606      0.936200202      0.361278385       6.20175342E-05  0.308225214      -2.60770321E-08
   0.00000000      0.165517241      0.954022586      0.936229169      0.361197680       5.56821324E-05  0.308154970       9.49949026E-08
   0.00000000      0.155172408      0.954042137      0.936256051      0.361123115       4.70172963E-05  0.308090091       1.76951289E-07
   0.00000000      0.144827589      0.954059541      0.936279833      0.361057162       3.57492754E-05  0.308032691      -3.72529030E-08
   0.00000000      0.134482756      0.954073906      0.936299443      0.361002892       2.16258359E-05  0.307985514      -1.65775418E-07
   0.00000000      0.124137931      0.954084218      0.936313748      0.360963613       4.58231762E-06  0.307951331       1.67638063E-08
   0.00000000      0.113793105      0.954089820      0.936321497      0.360942483      -1.54917325E-05  0.307932913       2.04890966E-08
   0.00000000      0.103448279      0.954089701      0.936321318      0.360943437      -3.88450608E-05  0.307933748       1.30385160E-08
   0.00000000       9.31034461E-02  0.954082966      0.936312139      0.360969812      -6.55976619E-05  0.307956636       1.08033419E-07
   0.00000000       8.27586204E-02  0.954068840      0.936292589      0.361025751      -9.59492318E-05  0.308005363      -4.28408384E-08
   0.00000000       7.24137947E-02  0.954046011      0.936261117      0.361115217      -1.29933382E-04  0.308083177      -1.19209290E-07
   0.00000000       6.20689653E-02  0.954013348      0.936216414      0.361242622      -1.67452294E-04  0.308193952       2.04890966E-08
   0.00000000       5.17241396E-02  0.953969777      0.936156511      0.361412644      -2.08053578E-04  0.308341861       1.67638063E-08
   0.00000000       4.13793102E-02  0.953914344      0.936080396      0.361629903      -2.50497484E-04  0.308530807       5.96046448E-08
   0.00000000       3.10344826E-02  0.953845978      0.935986459      0.361899376      -2.91674834E-04  0.308765173       6.51925802E-08
   0.00000000       2.06896551E-02  0.953764260      0.935874104      0.362226546      -3.24266643E-04  0.309049666      -5.02914190E-08
   0.00000000       1.03448275E-02  0.953669310      0.935743630      0.362617165      -3.30950948E-04  0.309389055      -1.56462193E-07
   1.01942774E-02  -1.06002917E-05  0.953610241      0.935662568      0.362766117      -5.35326195E-04  0.309520185      -2.98023224E-08
   2.03885511E-02  -4.05888240E-05  0.953556061      0.935588419      0.362721950      -1.12471532E-03  0.309487104       2.88709998E-07
   3.05827484E-02  -8.74972393E-05  0.953538239      0.935564101      0.362550467      -1.66679989E-03  0.309343725       3.91155481E-07
   4.07768898E-02  -1.49138228E-04  0.953541100      0.935567915      0.362293392      -2.14467454E-03  0.309126377       2.90572643E-07
   5.09709269E-02  -2.23550553E-04  0.953557789      0.935590804      0.361973435      -2.55975151E-03  0.308854610       2.90572643E-07
   6.11648858E-02  -3.08956922E-04  0.953584671      0.935627759      0.361604154      -2.91570113E-03  0.308540106       3.05473804E-07
   7.13587478E-02  -4.03728453E-04  0.953619540      0.935676038      0.361193627      -3.21617187E-03  0.308189690       6.74277544E-07
   8.15525427E-02  -5.06357115E-04  0.953661263      0.935733616      0.360747695      -3.46478377E-03  0.307808489       9.81613994E-07
   9.17462707E-02  -6.15430705E-04  0.953709364      0.935799837      0.360269874      -3.66420392E-03  0.307399362       1.16229057E-06
  0.101939946      -7.29613879E-04  0.953763247      0.935873806      0.359762549      -3.81695246E-03  0.306964397       1.09709799E-06
  0.112133577      -8.47629446E-04  0.953822553      0.935955763      0.359227151      -3.92474141E-03  0.306504756       1.61863863E-06
  0.122327171      -9.68243345E-04  0.953887641      0.936045229      0.358664691      -3.98909859E-03  0.306021303       1.65216625E-06
  0.132520750      -1.09024998E-03  0.953958511      0.936142862      0.358075529      -4.01080400E-03  0.305514306       1.93715096E-06
  0.142714337      -1.21245917E-03  0.954035759      0.936248839      0.357459277      -3.99042573E-03  0.304983467       1.81049109E-06
  0.152907923      -1.33368257E-03  0.954119146      0.936363637      0.356815487      -3.92790791E-03  0.304428309       1.99861825E-06
  0.163101539      -1.45272142E-03  0.954209387      0.936487794      0.356143177      -3.82298091E-03  0.303848028       2.19419599E-06
  0.173295200      -1.56835280E-03  0.954306841      0.936621904      0.355440915      -3.67467408E-03  0.303241372       2.47731805E-06
  0.183488905      -1.67931605E-03  0.954412043      0.936766863      0.354706705      -3.48165561E-03  0.302606672       2.89455056E-06
  0.193682685      -1.78429752E-03  0.954525709      0.936923325      0.353937924      -3.24204052E-03  0.301941693       3.16835940E-06
  0.203876525      -1.88191328E-03  0.954648793      0.937092423      0.353131384      -2.95332214E-03  0.301243782       3.06963921E-06
  0.214070454      -1.97069068E-03  0.954781830      0.937275350      0.352283001      -2.61246227E-03  0.300509393       3.20374966E-06
  0.224264458      -2.04904471E-03  0.954926074      0.937473714      0.351387769      -2.21540080E-03  0.299734384       3.30433249E-06
  0.234458551      -2.11525219E-03  0.955082595      0.937689245      0.350439876      -1.75741455E-03  0.298913807       3.74577940E-06
  0.244652733      -2.16741930E-03  0.955252945      0.937923968      0.349432081      -1.23253837E-03  0.298041552       4.34368849E-06
  0.254846990      -2.20344099E-03  0.955439389      0.938180268      0.348355621      -6.33489864E-04  0.297110438       4.34368849E-06
  0.265041292      -2.22095218E-03  0.955643713      0.938461602      0.347199947       4.87326870E-05  0.296111554       4.82611358E-06
  0.275235593      -2.21726228E-03  0.955868542      0.938771367      0.345952183       8.25204595E-04  0.295034260       5.54136932E-06
  0.285429865      -2.18927371E-03  0.956117332      0.939114213      0.344597369       1.70970976E-03  0.293866247       6.29946589E-06
  0.295624018      -2.13337177E-03  0.956394255      0.939495683      0.343116403       2.72003165E-03  0.292591840       7.04638660E-06
  0.305817962      -2.04527588E-03  0.956703961      0.939922571      0.341486514       3.87852755E-03  0.291192561       8.04290175E-06
  0.316011488      -1.91983546E-03  0.957052231      0.940402627      0.339679033       5.21459011E-03  0.289645493       9.07666981E-06
  0.326204360      -1.75073801E-03  0.957446337      0.940946400      0.337658137       6.76743640E-03  0.287922204       1.07772648E-05
  0.336396307      -1.53008103E-03  0.957895458      0.941566408      0.335378021       8.59037321E-03  0.285987198       1.28671527E-05
  0.346586645      -1.24772848E-03  0.958410800      0.942278206      0.332779348       1.07586533E-02  0.283795506       1.55847520E-05
  0.356774658      -8.90274358E-04  0.959006011      0.943101346      0.329784691       1.33824283E-02  0.281290621       1.96006149E-05
  0.366958946      -4.39326104E-04  0.959700406      0.944062293      0.326290846       1.66510027E-02  0.278402537       2.46521086E-05
  0.377137065       1.33766516E-04  0.960535526      0.945220411      0.322207600       2.14142073E-02  0.275117964       3.28775495E-05
  0.387299746       9.32033930E-04  0.961380541      0.946396589      0.318198323       2.86111552E-02  0.272140712       4.53367829E-05
  0.397434235       2.03104783E-03  0.961965084      0.947218060      0.315012664       3.78209874E-02  0.270225614       6.20633364E-05
  0.407523632       3.48527054E-03  0.962182462      0.947541356      0.312955946       4.89256419E-02  0.269769073       8.69948417E-05
  0.417543113       5.36030158E-03  0.961913407      0.947210550      0.312462300       6.24037385E-02  0.271375924       1.29299238E-04
  0.427456856       7.73026003E-03  0.960877657      0.945855260      0.314502239       7.89216682E-02  0.276211828       2.05703080E-04
  0.437217921       1.06651187E-02  0.958548546      0.942783594      0.320923388       9.90853161E-02  0.286226779       3.50562856E-04
  0.446780443       1.41935814E-02  0.953983128      0.936754346      0.334986776      0.122578405      0.304234177       6.18793070E-04
  0.456144422       1.82216074E-02  0.945744216      0.925855219      0.361497432      0.145776153      0.332946628       1.05895661E-03
  0.465438336       2.24102195E-02  0.932645500      0.908492208      0.403807074      0.158295602      0.371405602       1.65316835E-03
  0.474928796       2.61229333E-02  0.916370094      0.886933744      0.455045462      0.145324737      0.410364747       2.28392705E-03
  0.484786808       2.86871437E-02  0.902602494      0.868840277      0.496255577      0.102779217      0.436555892       2.86623836E-03
  0.494905144       2.98680626E-02  0.895923913      0.860395372      0.513770103       4.67850678E-02  0.444922656       3.49646062E-03
  0.505094886       2.98680626E-02  0.895145893      0.859998643      0.510582924      -7.79489987E-03  0.440302253       4.25153226E-03
  0.515213192       2.86871418E-02  0.896882534      0.863339841      0.491539240      -6.26695678E-02  0.426847249       5.41561097E-03
  0.525071204       2.61229314E-02  0.901126564      0.870478988      0.456144840     -0.114313498      0.404370189       7.04172254E-03
  0.534561634       2.24102195E-02  0.909517586      0.883198380      0.410323441     -0.145514637      0.373389989       8.57192278E-03
  0.543855608       1.82216056E-02  0.921111882      0.899897039      0.365921736     -0.147005126      0.337189347       9.56836343E-03
  0.553219557       1.41935805E-02  0.932188094      0.915570676      0.331179082     -0.127962098      0.302774936       1.01011992E-02
  0.562782109       1.06651178E-02  0.940070868      0.926665068      0.308041900     -0.103430457      0.276605904       1.03569366E-02
  0.572543144       7.73025956E-03  0.944773853      0.933267057      0.294390231      -8.15158933E-02  0.259753883       1.04696583E-02
  0.582456887       5.36030112E-03  0.947339773      0.936864674      0.287124276      -6.38760626E-02  0.249982700       1.05200205E-02
  0.592476368       3.48527008E-03  0.948641002      0.938683271      0.283880234      -4.99066375E-02  0.244890615       1.05375936E-02