 title = "grid"
                                   variables = "x","y","rho","P","u","v","M","S"
 zone n=        3000  e =        5742  et=quadrilateral, f=fepoint
   0.00000000       0.00000000      0.953248680      0.935165942      0.364184499      -2.88978044E-04  0.310753703      -4.47034836E-08
   1.00000000       0.00000000      0.944457769      0.932397962      0.320306659       5.74399135E-04  0.272454053       1.00064464E-02
   1.00000000      0.300000012      0.951288939      0.932483912      0.367495686      -2.06277787E-06  0.313706666       9.03569162E-06
   0.00000000      0.300000012      0.953695178      0.935779154      0.362666517       1.57140585E-06  0.309429377      -1.17346644E-07
   1.00000000       1.03448275E-02  0.945994198      0.932449639      0.327083290       8.32178572E-04  0.278437197       7.78623484E-03
   1.00000000       2.06896551E-02  0.947752893      0.932488382      0.335424989       1.04923570E-03  0.285798132       5.22746332E-03
   1.00000000       3.10344826E-02  0.948915482      0.932514787      0.341824979       1.16157543E-03  0.291425943       3.53949517E-03
   1.00000000       4.13793102E-02  0.949701369      0.932532430      0.347047240       1.20427413E-03  0.295998007       2.39939429E-03
   1.00000000       5.17241396E-02  0.950235188      0.932543874      0.351346314       1.19967922E-03  0.299746990       1.62500888E-03
   1.00000000       6.20689653E-02  0.950596035      0.932550967      0.354855001       1.16262294E-03  0.302796572       1.10106170E-03
   1.00000000       7.24137947E-02  0.950838864      0.932554781      0.357689649       1.10350933E-03  0.305253536       7.47568905E-04
   1.00000000       8.27586204E-02  0.951001167      0.932555795      0.359948695       1.02999946E-03  0.307207257       5.09649515E-04
   1.00000000       9.31034461E-02  0.951108217      0.932554960      0.361723393       9.47790802E-04  0.308739245       3.51205468E-04
   1.00000000      0.103448279      0.951178551      0.932552636      0.363098770       8.61211738E-04  0.309924811       2.45219097E-04
   1.00000000      0.113793105      0.951224625      0.932549119      0.364152431       7.73535809E-04  0.310832113       1.73617154E-04
   1.00000000      0.124137931      0.951254368      0.932544768      0.364952713       6.87264197E-04  0.311520636       1.25175342E-04
   1.00000000      0.134482756      0.951272964      0.932539582      0.365556985       6.04186382E-04  0.312040269       9.22437757E-05
   1.00000000      0.144827589      0.951284468      0.932534158      0.366012067       5.25833399E-04  0.312431395       6.94599003E-05
   1.00000000      0.155172408      0.951291323      0.932528436      0.366355538       4.53034329E-04  0.312726587       5.32697886E-05
   1.00000000      0.165517241      0.951295137      0.932522595      0.366615891       3.86491214E-04  0.312950373       4.13917005E-05
   1.00000000      0.175862074      0.951296747      0.932516694      0.366815120       3.26476613E-04  0.313121647       3.26856971E-05
   1.00000000      0.186206892      0.951296568      0.932510972      0.366969854       2.73120066E-04  0.313254595       2.67960131E-05
   1.00000000      0.196551725      0.951295912      0.932505548      0.367091656       2.26199481E-04  0.313359380       2.19736248E-05
   1.00000000      0.206896558      0.951294899      0.932500422      0.367188841       1.85489000E-04  0.313442975       1.79577619E-05
   1.00000000      0.217241377      0.951293468      0.932495832      0.367266893       1.50539068E-04  0.313510150       1.51582062E-05
   1.00000000      0.227586210      0.951291740      0.932491720      0.367329746       1.20814133E-04  0.313564211       1.32620335E-05
   1.00000000      0.237931028      0.951289833      0.932488024      0.367380202       9.56277727E-05  0.313607574       1.21258199E-05
   1.00000000      0.248275861      0.951288402      0.932485044      0.367419928       7.41488839E-05  0.313641757       1.10194087E-05
   1.00000000      0.258620679      0.951287091      0.932482660      0.367450297       5.56407722E-05  0.313667864       1.04233623E-05
   1.00000000      0.268965513      0.951286495      0.932480872      0.367471784       3.92194415E-05  0.313686401       9.40263271E-06
   1.00000000      0.279310346      0.951286077      0.932479978      0.367484510       2.36431315E-05  0.313697368       9.02079046E-06
   1.00000000      0.289655179      0.951286018      0.932479918      0.367490560       7.59024761E-06  0.313702494       9.04686749E-06
  0.989898980      0.300000012      0.951276302      0.932466745      0.367489785       1.38745133E-06  0.313702464       9.25175846E-06
  0.979797959      0.300000012      0.951247513      0.932427168      0.367485017      -1.40252484E-06  0.313700318       9.11764801E-06
  0.969696999      0.300000012      0.951219976      0.932389081      0.367484331      -4.25271628E-06  0.313701570       8.85315239E-06
  0.959595978      0.300000012      0.951193511      0.932352781      0.367487669      -7.32975241E-06  0.313706160       8.85128975E-06
  0.949494958      0.300000012      0.951168239      0.932318330      0.367495447      -1.07632241E-05  0.313714445       9.07108188E-06
  0.939393938      0.300000012      0.951144695      0.932285547      0.367508084      -1.45404047E-05  0.313726872       8.57748091E-06
  0.929292917      0.300000012      0.951122582      0.932254910      0.367526501      -1.87562837E-05  0.313744098       8.27014446E-06
  0.919191897      0.300000012      0.951101482      0.932226002      0.367551416      -2.34494928E-05  0.313766718       8.32974911E-06
  0.909090936      0.300000012      0.951081455      0.932198584      0.367583603      -2.86379654E-05  0.313795507       8.34837556E-06
  0.898989916      0.300000012      0.951062620      0.932172716      0.367624104      -3.43715328E-05  0.313831359       8.38004053E-06
  0.888888896      0.300000012      0.951044559      0.932148099      0.367674112      -4.06623476E-05  0.313875198       8.55326653E-06
  0.878787875      0.300000012      0.951027334      0.932124674      0.367734671      -4.75248526E-05  0.313927978       8.73208046E-06
  0.868686855      0.300000012      0.951010406      0.932101548      0.367807269      -5.50042605E-05  0.313991070       8.86432827E-06
  0.858585835      0.300000012      0.950993717      0.932078660      0.367893159      -6.31282528E-05  0.314065516       8.89785588E-06
  0.848484874      0.300000012      0.950976610      0.932055295      0.367993802      -7.19076997E-05  0.314152539       8.96118581E-06
  0.838383853      0.300000012      0.950958908      0.932031214      0.368110776      -8.13174483E-05  0.314253539       9.24989581E-06
  0.828282833      0.300000012      0.950940192      0.932005465      0.368245780      -9.14324191E-05  0.314370006       9.14745033E-06
  0.818181813      0.300000012      0.950919926      0.931977510      0.368400365      -1.02290374E-04  0.314503342       8.96863639E-06
  0.808080792      0.300000012      0.950897634      0.931946874      0.368576258      -1.13852177E-04  0.314655036       8.92020762E-06
  0.797979772      0.300000012      0.950872719      0.931912541      0.368775338      -1.26109648E-04  0.314826667       8.75629485E-06
  0.787878811      0.300000012      0.950844467      0.931873918      0.368999541      -1.39152951E-04  0.315019876       8.90344381E-06
  0.777777791      0.300000012      0.950812519      0.931830049      0.369250566      -1.52826324E-04  0.315236330       8.91461968E-06
  0.767676771      0.300000012      0.950776160      0.931780457      0.369530261      -1.67158345E-04  0.315477490       9.17166471E-06
  0.757575750      0.300000012      0.950735033      0.931724012      0.369840413      -1.82128453E-04  0.315745026       9.22195613E-06
  0.747474730      0.300000012      0.950688541      0.931660235      0.370182753      -1.97626956E-04  0.316040397       9.18656588E-06
  0.737373710      0.300000012      0.950636089      0.931588292      0.370558530      -2.13507446E-04  0.316364706       9.24989581E-06
  0.727272749      0.300000012      0.950577438      0.931507647      0.370968878      -2.29644953E-04  0.316718996       9.05245543E-06
  0.717171729      0.300000012      0.950511873      0.931417584      0.371414483      -2.45837931E-04  0.317103833       8.89413059E-06
  0.707070708      0.300000012      0.950439274      0.931318045      0.371895373      -2.61788577E-04  0.317519248       8.98167491E-06
  0.696969688      0.300000012      0.950359762      0.931208670      0.372411191      -2.77204294E-04  0.317965031       8.61100852E-06
  0.686868668      0.300000012      0.950273216      0.931089699      0.372960508      -2.91667704E-04  0.318439871       8.36513937E-06
  0.676767647      0.300000012      0.950179875      0.930961549      0.373541087      -3.04857502E-04  0.318941891       8.23102891E-06
  0.666666687      0.300000012      0.950080574      0.930825293      0.374149561      -3.16271558E-04  0.319468111       8.18446279E-06
  0.656565666      0.300000012      0.949976146      0.930681765      0.374781340      -3.25293251E-04  0.320014656       7.85663724E-06
  0.646464646      0.300000012      0.949867725      0.930532753      0.375430435      -3.31526739E-04  0.320576280       7.51204789E-06
  0.636363626      0.300000012      0.949756801      0.930380642      0.376090020      -3.34406126E-04  0.321146965       7.56978989E-06
  0.626262605      0.300000012      0.949645579      0.930228055      0.376751572      -3.33387783E-04  0.321719408       7.49900937E-06
  0.616161644      0.300000012      0.949536562      0.930078566      0.377405316      -3.27969465E-04  0.322285086       7.54930079E-06
  0.606060624      0.300000012      0.949432433      0.929935753      0.378040373      -3.17466620E-04  0.322834462       7.46548176E-06
  0.595959604      0.300000012      0.949336708      0.929804385      0.378644288      -3.01525084E-04  0.323356718       7.40587711E-06
  0.585858583      0.300000012      0.949252546      0.929688692      0.379204333      -2.80134234E-04  0.323840737       7.07991421E-06
  0.575757563      0.300000012      0.949183166      0.929593205      0.379707575      -2.53441569E-04  0.324275315       6.67199492E-06
  0.565656543      0.300000012      0.949131548      0.929522336      0.380141824      -2.21973693E-04  0.324649692       6.57886267E-06
  0.555555582      0.300000012      0.949100435      0.929479420      0.380496025      -1.86512931E-04  0.324954361       6.30319118E-06
  0.545454562      0.300000012      0.949091733      0.929467618      0.380761027      -1.48194609E-04  0.325181216       6.43916428E-06
  0.535353541      0.300000012      0.949106991      0.929488420      0.380929857      -1.08246139E-04  0.325324357       6.34789467E-06
  0.525252521      0.300000012      0.949146926      0.929542840      0.380998105      -6.82225073E-05  0.325379968       5.93438745E-06
  0.515151501      0.300000012      0.949211180      0.929630995      0.380963981      -2.88040919E-05  0.325346410       6.00330532E-06
  0.505050480      0.300000012      0.949300110      0.929752946      0.380826950       9.64816900E-06  0.325223297       6.02006912E-06
  0.494949490      0.300000012      0.949413359      0.929908693      0.380588114       4.72445681E-05  0.325011492       6.49690628E-06
  0.484848499      0.300000012      0.949550569      0.930096567      0.380250096       8.37569969E-05  0.324713469       6.19888306E-06
  0.474747479      0.300000012      0.949709892      0.930314779      0.379818290       1.18992444E-04  0.324333936       5.90085983E-06
  0.464646459      0.300000012      0.949889898      0.930561185      0.379298270       1.53416142E-04  0.323877692       5.42774796E-06
  0.454545468      0.300000012      0.950088799      0.930833876      0.378696024       1.87263911E-04  0.323349953       5.26010990E-06
  0.444444448      0.300000012      0.950304687      0.931129515      0.378018767       2.19318303E-04  0.322757095       4.80189919E-06
  0.434343427      0.300000012      0.950534344      0.931444705      0.377276152       2.47806980E-04  0.322107494       4.91179526E-06
  0.424242437      0.300000012      0.950774372      0.931773901      0.376480520       2.71552388E-04  0.321411997       4.83728945E-06
  0.414141417      0.300000012      0.951021254      0.932112336      0.375645190       2.89875985E-04  0.320682257       4.49083745E-06
  0.404040396      0.300000012      0.951271713      0.932455838      0.374783605       3.02556349E-04  0.319929928       4.31016088E-06
  0.393939406      0.300000012      0.951522171      0.932799399      0.373908967       3.09868570E-04  0.319166511       4.13879752E-06
  0.383838385      0.300000012      0.951769888      0.933139265      0.373033017       3.12330667E-04  0.318402290       3.97488475E-06
  0.373737365      0.300000012      0.952012360      0.933471978      0.372166276       3.10392643E-04  0.317646295       3.84822488E-06
  0.363636374      0.300000012      0.952247560      0.933794558      0.371318012       3.04710935E-04  0.316906691       3.50736082E-06
  0.353535354      0.300000012      0.952473581      0.934104502      0.370496005       2.96033657E-04  0.316190213       3.08081508E-06
  0.343434334      0.300000012      0.952688873      0.934399843      0.369706243       2.85023067E-04  0.315501958       2.80700624E-06
  0.333333343      0.300000012      0.952892363      0.934678972      0.368953437       2.72278674E-04  0.314846098       2.52947211E-06
  0.323232323      0.300000012      0.953083336      0.934940875      0.368241280       2.58208369E-04  0.314225852       2.15694308E-06
  0.313131303      0.300000012      0.953261137      0.935184598      0.367572397       2.43184142E-04  0.313643485       1.58883631E-06
  0.303030312      0.300000012      0.953424990      0.935409606      0.366948515       2.27624347E-04  0.313100338       1.55717134E-06
  0.292929292      0.300000012      0.953574896      0.935615122      0.366370559       2.11837658E-04  0.312597424       1.11758709E-06
  0.282828271      0.300000012      0.953710556      0.935801089      0.365838617       1.96124092E-04  0.312134743       7.13393092E-07
  0.272727281      0.300000012      0.953831732      0.935967565      0.365352660       1.80618314E-04  0.311712176       7.37607479E-07
  0.262626261      0.300000012      0.953938782      0.936114430      0.364911556       1.65575810E-04  0.311328888       5.64381480E-07
  0.252525240      0.300000012      0.954031944      0.936242163      0.364514321       1.51095577E-04  0.310983956       2.44006515E-07
  0.242424250      0.300000012      0.954111040      0.936350882      0.364159346       1.37291194E-04  0.310675949       3.09199095E-07
  0.232323229      0.300000012      0.954176724      0.936441183      0.363844812       1.24228551E-04  0.310403317       3.33413482E-07
  0.222222224      0.300000012      0.954229414      0.936513543      0.363569051       1.11857706E-04  0.310164630       2.92435288E-07
  0.212121218      0.300000012      0.954269707      0.936568677      0.363329649       1.00285331E-04  0.309957832       4.09781933E-08
  0.202020198      0.300000012      0.954297781      0.936607480      0.363124609       8.94899058E-05  0.309781045       3.05473804E-07
  0.191919193      0.300000012      0.954314530      0.936630547      0.362951875       7.93727158E-05  0.309632570       4.00468707E-07
  0.181818187      0.300000012      0.954320669      0.936639071      0.362809271       7.00247838E-05  0.309510499       5.02914190E-07
  0.171717167      0.300000012      0.954316854      0.936634004      0.362694532       6.13381999E-05  0.309412837       6.25848770E-07
  0.161616161      0.300000012      0.954304397      0.936616659      0.362605304       5.33705570E-05  0.309337556       3.78116965E-07
  0.151515156      0.300000012      0.954283655      0.936588228      0.362539262       4.61157833E-05  0.309282541       5.34579158E-07
  0.141414136      0.300000012      0.954255819      0.936549902      0.362493932       3.95377501E-05  0.309245706       4.09781933E-07
  0.131313130      0.300000012      0.954221904      0.936503232      0.362466633       3.37220881E-05  0.309224606       3.61353159E-07
  0.121212125      0.300000012      0.954182863      0.936449468      0.362454891       2.86054528E-05  0.309217155       1.99303031E-07
  0.111111112      0.300000012      0.954139769      0.936390340      0.362455755       2.41486669E-05  0.309220672       2.86847353E-07
  0.101010099      0.300000012      0.954093695      0.936327279      0.362466514       2.04388834E-05  0.309232771       5.27128577E-07
   9.09090936E-02  0.300000012      0.954046011      0.936261475      0.362484723       1.73877288E-05  0.309251457       2.40281224E-07
   8.08080807E-02  0.300000012      0.953997552      0.936194658      0.362507790       1.48717891E-05  0.309274316      -3.72529030E-08
   7.07070678E-02  0.300000012      0.953949153      0.936128080      0.362533420       1.27885805E-05  0.309299380      -7.82310963E-08
   6.06060624E-02  0.300000012      0.953902006      0.936063409      0.362559676       1.10207484E-05  0.309324771       3.72529030E-09
   5.05050495E-02  0.300000012      0.953856945      0.936001420      0.362585068       9.40791506E-06  0.309349418      -1.24797225E-07
   4.04040404E-02  0.300000012      0.953814685      0.935943663      0.362608284       7.84526765E-06  0.309371889       2.42143869E-07
   3.03030312E-02  0.300000012      0.953776360      0.935890913      0.362628698       6.21746312E-06  0.309391826       1.62050128E-07
   2.02020202E-02  0.300000012      0.953742325      0.935844004      0.362645745       4.36695018E-06  0.309408575      -2.79396772E-08
   1.01010101E-02  0.300000012      0.953713238      0.935804009      0.362659097       2.30794717E-06  0.309421867      -1.09896064E-07
   0.00000000      0.289655179      0.953693390      0.935776770      0.362668097       8.20863625E-06  0.309430808      -3.35276127E-08
   0.00000000      0.279310346      0.953693867      0.935777605      0.362664282       1.60432792E-05  0.309427530       1.19209290E-07
   0.00000000      0.268965513      0.953696430      0.935781062      0.362652004       2.33082756E-05  0.309416890       8.56816769E-08
   0.00000000      0.258620679      0.953700542      0.935786545      0.362632066       2.98898867E-05  0.309399635      -1.28522515E-07
   0.00000000      0.248275861      0.953706086      0.935794175      0.362605065       3.57896315E-05  0.309376210      -7.26431608E-08
   0.00000000      0.237931028      0.953713119      0.935803950      0.362571746       4.06446670E-05  0.309347361       0.00000000    
   0.00000000      0.227586210      0.953721106      0.935814917      0.362532884       4.44347861E-05  0.309313655      -9.31322575E-09
   0.00000000      0.217241377      0.953729868      0.935827017      0.362489909       4.69783299E-05  0.309276432       8.94069672E-08
   0.00000000      0.206896558      0.953739166      0.935839772      0.362444013       4.80872259E-05  0.309236676       8.00937414E-08
   0.00000000      0.196551725      0.953748703      0.935852826      0.362396568       4.76629830E-05  0.309195578       2.98023224E-08
   0.00000000      0.186206892      0.953758001      0.935865641      0.362349361       4.55365116E-05  0.309154689       8.00937414E-08
   0.00000000      0.175862074      0.953766644      0.935877442      0.362304032       4.14764036E-05  0.309115440      -3.16649675E-08
   0.00000000      0.165517241      0.953774035      0.935887575      0.362262785       3.53218966E-05  0.309079826      -2.60770321E-08
   0.00000000      0.155172408      0.953779697      0.935895503      0.362227857       2.69926441E-05  0.309049606       1.58324838E-07
   0.00000000      0.144827589      0.953783274      0.935900271      0.362201452       1.62396773E-05  0.309026867      -1.11758709E-08
   0.00000000      0.134482756      0.953783810      0.935901105      0.362186283       2.92633763E-06  0.309013873       5.96046448E-08
   0.00000000      0.124137931      0.953780830      0.935896993      0.362184882      -1.30349599E-05  0.309012890       3.35276127E-08
   0.00000000      0.113793105      0.953773737      0.935887277      0.362200320      -3.18944039E-05  0.309026480       1.02445483E-07
   0.00000000      0.103448279      0.953761399      0.935870409      0.362235636      -5.38104832E-05  0.309057415       1.67638063E-07
   0.00000000       9.31034461E-02  0.953743458      0.935845613      0.362294018      -7.88950274E-05  0.309108406       5.21540642E-08
   0.00000000       8.27586204E-02  0.953718662      0.935811460      0.362379253      -1.07439591E-04  0.309182733      -6.51925802E-08
   0.00000000       7.24137947E-02  0.953686237      0.935766995      0.362494946      -1.39302487E-04  0.309283584      -2.23517418E-08
   0.00000000       6.20689653E-02  0.953645289      0.935710847      0.362645030      -1.74596062E-04  0.309414268       8.00937414E-08
   0.00000000       5.17241396E-02  0.953594685      0.935641229      0.362834007      -2.12858300E-04  0.309578836      -7.45058060E-09
   0.00000000       4.13793102E-02  0.953533471      0.935557187      0.363066077      -2.52743979E-04  0.309780866       3.16649675E-08
   0.00000000       3.10344826E-02  0.953460693      0.935457349      0.363346308      -2.91119068E-04  0.310024679       1.95577741E-07
   0.00000000       2.06896551E-02  0.953375995      0.935340703      0.363679856      -3.20530817E-04  0.310314894      -1.93715096E-07
   0.00000000       1.03448275E-02  0.953279316      0.935208142      0.364072561      -3.23264481E-04  0.310656220       1.11758709E-07
   1.01942774E-02  -1.06002917E-05  0.953195989      0.935093641      0.364238471      -5.27105876E-04  0.310803443       7.45058060E-09
   2.03885511E-02  -4.05888240E-05  0.953073502      0.934925675      0.364238620      -1.12007943E-03  0.310812652       3.22237611E-07
   3.05827484E-02  -8.74972393E-05  0.952995360      0.934818506      0.364100218      -1.66741991E-03  0.310701400       4.95463610E-07
   4.07768898E-02  -1.49138228E-04  0.952945054      0.934749424      0.363866985      -2.15126481E-03  0.310507834       4.52622771E-07
   5.09709269E-02  -2.23550553E-04  0.952915192      0.934708416      0.363563418      -2.57262238E-03  0.310253084       4.78699803E-07
   6.11648858E-02  -3.08956922E-04  0.952902019      0.934690297      0.363204211      -2.93511595E-03  0.309949756       4.02331352E-07
   7.13587478E-02  -4.03728453E-04  0.952902555      0.934691489      0.362798870      -3.24228127E-03  0.309605986       9.14558768E-07
   8.15525427E-02  -5.06357115E-04  0.952915430      0.934709370      0.362353951      -3.49747646E-03  0.309227496       1.17346644E-06
   9.17462707E-02  -6.15430705E-04  0.952939510      0.934742391      0.361873806      -3.70340515E-03  0.308817983       1.07847154E-06
  0.101939946      -7.29613879E-04  0.952973664      0.934789419      0.361361444      -3.86242685E-03  0.308379978       1.20326877E-06
  0.112133577      -8.47629446E-04  0.953017056      0.934849322      0.360818833      -3.97625705E-03  0.307915181       1.51619315E-06
  0.122327171      -9.68243345E-04  0.953069925      0.934922040      0.360246927      -4.04631160E-03  0.307424426       1.70804560E-06
  0.132520750      -1.09024998E-03  0.953131855      0.935006917      0.359646291      -4.07340750E-03  0.306908220       1.46403909E-06
  0.142714337      -1.21245917E-03  0.953202426      0.935104012      0.359016687      -4.05796245E-03  0.306366295       1.69500709E-06
  0.152907923      -1.33368257E-03  0.953281701      0.935213327      0.358357519      -4.00015572E-03  0.305798143       2.14390457E-06
  0.163101539      -1.45272142E-03  0.953370273      0.935335457      0.357667744      -3.89956031E-03  0.305202931       2.64868140E-06
  0.173295200      -1.56835280E-03  0.953468800      0.935470819      0.356945634      -3.75530799E-03  0.304579169       2.68220901E-06
  0.183488905      -1.67931605E-03  0.953577578      0.935620427      0.356189102      -3.56607093E-03  0.303925097       2.84798443E-06
  0.193682685      -1.78429752E-03  0.953697383      0.935785115      0.355395287      -3.33004119E-03  0.303238213       3.03238630E-06
  0.203876525      -1.88191328E-03  0.953828990      0.935966253      0.354560912      -3.04472074E-03  0.302515745       3.33972275E-06
  0.214070454      -1.97069068E-03  0.953973711      0.936165273      0.353681862      -2.70708092E-03  0.301754266       3.58745456E-06
  0.224264458      -2.04904471E-03  0.954133034      0.936384320      0.352753043      -2.31316756E-03  0.300949395       3.71038914E-06
  0.234458551      -2.11525219E-03  0.954308331      0.936625600      0.351768285      -1.85818784E-03  0.300095916       4.21516597E-06
  0.244652733      -2.16741930E-03  0.954501808      0.936891854      0.350720167      -1.33622426E-03  0.299187571       4.61935997E-06
  0.254846990      -2.20344099E-03  0.954715729      0.937186062      0.349599838      -7.39942479E-04  0.298216909       4.84474003E-06
  0.265041292      -2.22095218E-03  0.954952538      0.937511861      0.348396510      -6.03278604E-05  0.297175020       5.22099435E-06
  0.275235593      -2.21726228E-03  0.955215394      0.937873423      0.347097188       7.13748508E-04  0.296050996       5.50411642E-06
  0.285429865      -2.18927371E-03  0.955507457      0.938275576      0.345686257       1.59621902E-03  0.294831991       6.20260835E-06
  0.295624018      -2.13337177E-03  0.955833137      0.938724101      0.344144583       2.60480284E-03  0.293502241       6.99050725E-06
  0.305817962      -2.04527588E-03  0.956197441      0.939225793      0.342449069       3.76183912E-03  0.292043090       7.79516995E-06
  0.316011488      -1.91983546E-03  0.956606209      0.939789057      0.340570599       5.09691192E-03  0.290431112       8.97981226E-06
  0.326204360      -1.75073801E-03  0.957066357      0.940423608      0.338473111       6.64909836E-03  0.288637787       1.06822699E-05
  0.336396307      -1.53008103E-03  0.957586825      0.941141725      0.336110741       8.47165752E-03  0.286627531       1.29155815E-05
  0.346586645      -1.24772848E-03  0.958178520      0.941958487      0.333424270       1.06398407E-02  0.284355432       1.56071037E-05
  0.356774658      -8.90274358E-04  0.958854854      0.942892969      0.330336124       1.32636102E-02  0.281765014       1.93156302E-05
  0.366958946      -4.39326104E-04  0.959634244      0.943970799      0.326743633       1.65320262E-02  0.278786600       2.42292881E-05
  0.377137065       1.33766516E-04  0.960556984      0.945249796      0.322557271       2.12951172E-02  0.275407314       3.27397138E-05
  0.387299746       9.32033930E-04  0.961491346      0.946549237      0.318443030       2.84911916E-02  0.272332907       4.53293324E-05
  0.397434235       2.03104783E-03  0.962165356      0.947494626      0.315153003       3.76966372E-02  0.270320326       6.24880195E-05
  0.407523632       3.48527054E-03  0.962472379      0.947942376      0.312994152       4.87914048E-02  0.269767165       8.83042812E-05
  0.417543113       5.36030158E-03  0.962292910      0.947735548      0.312403083       6.22522123E-02  0.271279544       1.31189823E-04
  0.427456856       7.73026003E-03  0.961347759      0.946505845      0.314351261       7.87447169E-02  0.276023030       2.08521262E-04
  0.437217921       1.06651187E-02  0.959112227      0.943563223      0.320685804       9.88722295E-02  0.285945684       3.54159623E-04
  0.446780443       1.41935814E-02  0.954643667      0.937666059      0.334669054      0.122319333      0.303861171       6.22572377E-04
  0.456144422       1.82216074E-02  0.946506739      0.926904738      0.361105651      0.145467117      0.332483172       1.06361322E-03
  0.465438336       2.24102195E-02  0.933515847      0.909684420      0.403349787      0.157948956      0.370862484       1.65876374E-03
  0.474928796       2.61229333E-02  0.917345583      0.888261259      0.454546899      0.144976079      0.409777135       2.29009241E-03
  0.484786808       2.86871437E-02  0.903665543      0.870275915      0.495769262      0.102470234      0.435988396       2.86937505E-03
  0.494905144       2.98680626E-02  0.897054374      0.861913621      0.513359666       4.65304442E-02  0.444438726       3.49411368E-03
  0.505094886       2.98680626E-02  0.896338880      0.861595750      0.510262370      -8.00211728E-03  0.439913511       4.24234942E-03
  0.515213192       2.86871418E-02  0.898142755      0.865023255      0.491295576      -6.28460795E-02  0.426542312       5.39785996E-03
  0.525071204       2.61229314E-02  0.902461231      0.872260988      0.455954880     -0.114466071      0.404129505       7.01475516E-03
  0.534561634       2.24102195E-02  0.910932541      0.885094881      0.410156101     -0.145642400      0.373181194       8.54061171E-03
  0.543855608       1.82216056E-02  0.922606289      0.901917100      0.365751743     -0.147108734      0.336982846       9.54113156E-03
  0.553219557       1.41935805E-02  0.933754504      0.917710721      0.330994904     -0.128051281      0.302556664       1.00853816E-02
  0.562782109       1.06651178E-02  0.941700399      0.928914368      0.307842493     -0.103517659      0.276372969       1.03566479E-02
  0.572543144       7.73025956E-03  0.946460247      0.935615361      0.294178694      -8.16085562E-02  0.259506911       1.04860440E-02
  0.582456887       5.36030112E-03  0.949080288      0.939303517      0.286904812      -6.39767721E-02  0.249723822       1.05500408E-02
  0.592476368       3.48527008E-03  0.950439274      0.941208005      0.283651769      -5.00119105E-02  0.244618014       1.05722882E-02