 title = "grid"
                                   variables = "x","y","rho","P","u","v","M","S"
 zone n=        3000  e =        5742  et=quadrilateral, f=fepoint
   0.00000000       0.00000000      0.953251004      0.935169160      0.364362568      -3.20514082E-04  0.310905546       2.60770321E-08
   1.00000000       0.00000000      0.944415271      0.932345212      0.322526157       5.84397698E-04  0.274343550       1.00128464E-02
   1.00000000      0.300000012      0.951365232      0.932588875      0.369736403       2.94376041E-05  0.315614343       9.30204988E-06
   0.00000000      0.300000012      0.953645587      0.935711205      0.362799585       6.43536578E-06  0.309546113       9.68575478E-08
   1.00000000       1.03448275E-02  0.945955276      0.932402372      0.329307288       8.67561437E-04  0.280331850       7.79313408E-03
   1.00000000       2.06896551E-02  0.947718143      0.932443559      0.337668866       1.11621851E-03  0.287711799       5.23074716E-03
   1.00000000       3.10344826E-02  0.948885679      0.932473123      0.344085991       1.25854881E-03  0.293355823       3.53877060E-03
   1.00000000       4.13793102E-02  0.949674904      0.932494760      0.349322975       1.33003329E-03  0.297941208       2.39804573E-03
   1.00000000       5.17241396E-02  0.950212061      0.932511091      0.353631884       1.35280483E-03  0.301698983       1.62393600E-03
   1.00000000       6.20689653E-02  0.950576782      0.932523847      0.357146174       1.34163059E-03  0.304753482       1.10036135E-03
   1.00000000       7.24137947E-02  0.950823605      0.932534039      0.359985799       1.30652718E-03  0.307214618       7.47786835E-04
   1.00000000       8.27586204E-02  0.950990498      0.932542562      0.362247676       1.25488208E-03  0.309170455       5.11238351E-04
   1.00000000       9.31034461E-02  0.951103270      0.932549536      0.364022851       1.19204225E-03  0.310702562       3.52684408E-04
   1.00000000      0.103448279      0.951179981      0.932555616      0.365398049       1.12194126E-03  0.311887681       2.46325508E-04
   1.00000000      0.113793105      0.951232255      0.932560742      0.366451353       1.04760414E-03  0.312794298       1.74842775E-04
   1.00000000      0.124137931      0.951268613      0.932565629      0.367250651       9.71339585E-04  0.313481539       1.26611441E-04
   1.00000000      0.134482756      0.951294184      0.932569921      0.367853105       8.94897210E-04  0.313999116       9.35327262E-05
   1.00000000      0.144827589      0.951312721      0.932573855      0.368306518       8.19453213E-04  0.314388394       7.04769045E-05
   1.00000000      0.155172408      0.951326668      0.932577372      0.368647963       7.46034260E-04  0.314681411       5.37335873E-05
   1.00000000      0.165517241      0.951337278      0.932580709      0.368905783       6.75232382E-04  0.314902574       4.16617841E-05
   1.00000000      0.175862074      0.951345265      0.932583869      0.369102567       6.07451482E-04  0.315071255       3.33245844E-05
   1.00000000      0.186206892      0.951351464      0.932586789      0.369254410       5.42988768E-04  0.315201283       2.73063779E-05
   1.00000000      0.196551725      0.951356709      0.932589471      0.369372606       4.81948926E-04  0.315302581       2.24951655E-05
   1.00000000      0.206896558      0.951361179      0.932592034      0.369465679       4.24271653E-04  0.315382242       1.86711550E-05
   1.00000000      0.217241377      0.951364994      0.932594240      0.369539171       3.69758549E-04  0.315445185       1.54301524E-05
   1.00000000      0.227586210      0.951367855      0.932596505      0.369597077       3.18214385E-04  0.315494686       1.36047602E-05
   1.00000000      0.237931028      0.951370001      0.932598233      0.369642317       2.69405195E-04  0.315533310       1.23530626E-05
   1.00000000      0.248275861      0.951372206      0.932599843      0.369676083       2.23030758E-04  0.315562189       1.08089298E-05
   1.00000000      0.258620679      0.951373398      0.932601094      0.369700223       1.78642425E-04  0.315582752       1.03600323E-05
   1.00000000      0.268965513      0.951374531      0.932602227      0.369715214       1.35781927E-04  0.315595508       9.95770097E-06
   1.00000000      0.279310346      0.951375484      0.932603180      0.369721800       9.39448946E-05  0.315601170       9.54791903E-06
   1.00000000      0.289655179      0.951376259      0.932604074      0.369722158       5.22461669E-05  0.315601408       9.42125916E-06
  0.989898980      0.300000012      0.951418102      0.932661474      0.369690269       3.78042969E-05  0.315571427       9.32067633E-06
  0.979797959      0.300000012      0.951543510      0.932833493      0.369595706       3.58978214E-05  0.315482438       9.26665962E-06
  0.969696999      0.300000012      0.951670229      0.933007479      0.369501114       3.38499231E-05  0.315393269       9.31695104E-06
  0.959595978      0.300000012      0.951797545      0.933182299      0.369407624       3.16346886E-05  0.315305024       9.35979187E-06
  0.949494958      0.300000012      0.951924860      0.933357179      0.369316489       2.92245531E-05  0.315218776       9.55536962E-06
  0.939393938      0.300000012      0.952051699      0.933531106      0.369228870       2.65370727E-05  0.315135628       9.32253897E-06
  0.929292917      0.300000012      0.952177107      0.933703244      0.369146436       2.35953521E-05  0.315056980       9.26479697E-06
  0.919191897      0.300000012      0.952300370      0.933872461      0.369070470       2.03332693E-05  0.314983964       9.28342342E-06
  0.909090936      0.300000012      0.952420533      0.934037745      0.369002461       1.67086582E-05  0.314917952       9.62801278E-06
  0.898989916      0.300000012      0.952537298      0.934197962      0.368944019       1.26780551E-05  0.314860344       9.51811671E-06
  0.888888896      0.300000012      0.952649772      0.934352219      0.368896931       8.22557649E-06  0.314812779       9.32812691E-06
  0.878787875      0.300000012      0.952756822      0.934499204      0.368863106       3.34336323E-06  0.314776868       9.28156078E-06
  0.868686855      0.300000012      0.952857792      0.934637964      0.368844181      -2.08740903E-06  0.314754009       9.44174826E-06
  0.858585835      0.300000012      0.952951968      0.934767485      0.368842006      -7.99546615E-06  0.314745873       9.65036452E-06
  0.848484874      0.300000012      0.953038931      0.934886873      0.368858606      -1.44758387E-05  0.314754307       9.61124897E-06
  0.838383853      0.300000012      0.953117669      0.934994757      0.368895829      -2.15269338E-05  0.314780921       9.30204988E-06
  0.828282833      0.300000012      0.953187287      0.935090303      0.368955821      -2.91860033E-05  0.314827532       9.25920904E-06
  0.818181813      0.300000012      0.953247249      0.935172677      0.369040400      -3.74795563E-05  0.314895749       9.23871994E-06
  0.808080792      0.300000012      0.953296661      0.935240686      0.369151592      -4.64263103E-05  0.314987302       9.41194594E-06
  0.797979772      0.300000012      0.953335106      0.935293317      0.369291365      -5.59370892E-05  0.315104067       9.27038491E-06
  0.787878811      0.300000012      0.953361690      0.935329854      0.369461715      -6.61036829E-05  0.315247655       9.29832458E-06
  0.777777791      0.300000012      0.953375876      0.935349524      0.369664222      -7.68237951E-05  0.315419465       9.47527587E-06
  0.767676771      0.300000012      0.953377247      0.935351193      0.369900852      -8.80916486E-05  0.315621346       9.18656588E-06
  0.757575750      0.300000012      0.953365028      0.935334504      0.370173037      -9.99129843E-05  0.315854400       9.34861600E-06
  0.747474730      0.300000012      0.953339100      0.935298681      0.370482475      -1.12242909E-04  0.316120178       9.10088420E-06
  0.737373710      0.300000012      0.953299046      0.935243368      0.370830268      -1.24854312E-04  0.316419661       8.77305865E-06
  0.727272749      0.300000012      0.953244388      0.935168326      0.371217251      -1.37719733E-04  0.316753477       8.80286098E-06
  0.717171729      0.300000012      0.953175247      0.935073137      0.371643871      -1.50746739E-04  0.317122161       8.60355794E-06
  0.707070708      0.300000012      0.953091621      0.934958041      0.372110277      -1.63643635E-04  0.317525774       8.34092498E-06
  0.696969688      0.300000012      0.952993810      0.934823751      0.372615844      -1.76109839E-04  0.317963660       8.37445259E-06
  0.686868668      0.300000012      0.952882290      0.934670687      0.373159051      -1.87880883E-04  0.318434656       8.45454633E-06
  0.676767647      0.300000012      0.952758074      0.934500039      0.373737782      -1.98579204E-04  0.318936855       8.32974911E-06
  0.666666687      0.300000012      0.952622235      0.934313118      0.374348491      -2.07713238E-04  0.319467217       7.94790685E-06
  0.656565666      0.300000012      0.952475965      0.934112012      0.374986470      -2.14723957E-04  0.320021510       7.60704279E-06
  0.646464646      0.300000012      0.952320993      0.933898985      0.375645936      -2.19154143E-04  0.320594817       7.36676157E-06
  0.636363626      0.300000012      0.952159584      0.933677137      0.376319230      -2.20417496E-04  0.321180344       7.09109008E-06
  0.626262605      0.300000012      0.951994359      0.933449864      0.376997381      -2.17728884E-04  0.321770400       6.60307705E-06
  0.616161644      0.300000012      0.951828063      0.933221281      0.377669811      -2.10802740E-04  0.322355658       6.26966357E-06
  0.606060624      0.300000012      0.951664209      0.932996213      0.378324687      -1.98849375E-04  0.322925746       6.06104732E-06
  0.595959604      0.300000012      0.951506555      0.932779610      0.378948838      -1.81552328E-04  0.323469251       5.89899719E-06
  0.585858583      0.300000012      0.951358795      0.932576716      0.379528463      -1.58873096E-04  0.323974073       5.74998558E-06
  0.575757563      0.300000012      0.951224506      0.932392418      0.380049527      -1.31035471E-04  0.324428022       5.72018325E-06
  0.565656543      0.300000012      0.951107264      0.932231665      0.380498946      -9.85937295E-05  0.324819654       5.90085983E-06
  0.555555582      0.300000012      0.951009929      0.932098329      0.380865216      -6.25598768E-05  0.325138897       6.15790486E-06
  0.545454562      0.300000012      0.950935125      0.931995511      0.381138682      -2.41837661E-05  0.325377524       5.92879951E-06
  0.535353541      0.300000012      0.950884044      0.931925356      0.381312758       1.51384702E-05  0.325529635       5.89527190E-06
  0.525252521      0.300000012      0.950857162      0.931888819      0.381383955       5.41374175E-05  0.325592190       6.25103712E-06
  0.515151501      0.300000012      0.950855315      0.931886017      0.381351113       9.23984553E-05  0.325564355       5.92134893E-06
  0.505050480      0.300000012      0.950878441      0.931917965      0.381214499       1.29943728E-04  0.325446129       6.17466867E-06
  0.494949490      0.300000012      0.950926721      0.931984186      0.380975217       1.67101665E-04  0.325238556       6.19329512E-06
  0.484848499      0.300000012      0.950999081      0.932083428      0.380636364       2.03538861E-04  0.324944347       6.08153641E-06
  0.474747479      0.300000012      0.951094091      0.932213724      0.380203128       2.39016110E-04  0.324568063       6.02006912E-06
  0.464646459      0.300000012      0.951210439      0.932373345      0.379681170       2.74307531E-04  0.324114591       5.98467886E-06
  0.454545468      0.300000012      0.951346695      0.932560265      0.379075974       3.09498515E-04  0.323588699       5.90644777E-06
  0.444444448      0.300000012      0.951500595      0.932770967      0.378394097       3.42953310E-04  0.322996289       5.34951687E-06
  0.434343427      0.300000012      0.951668501      0.933001101      0.377645493       3.72644892E-04  0.322345972       4.98630106E-06
  0.424242437      0.300000012      0.951846659      0.933245420      0.376842797       3.96894815E-04  0.321648836       4.77395952E-06
  0.414141417      0.300000012      0.952031136      0.933498204      0.376000017       4.15071583E-04  0.320917189       4.27104533E-06
  0.404040396      0.300000012      0.952218235      0.933754742      0.375131667       4.27003892E-04  0.320163488       3.97115946E-06
  0.393939406      0.300000012      0.952404320      0.934010088      0.374251127       4.33101784E-04  0.319399565       3.86126339E-06
  0.383838385      0.300000012      0.952586651      0.934259832      0.373370677       4.33802372E-04  0.318636060       3.19257379E-06
  0.373737365      0.300000012      0.952762306      0.934500635      0.372501224       4.29797394E-04  0.317882359       2.79955566E-06
  0.363636374      0.300000012      0.952929199      0.934729397      0.371652216       4.21719305E-04  0.317146808       2.30222940E-06
  0.353535354      0.300000012      0.953085244      0.934943497      0.370831728       4.10239008E-04  0.316436291       2.14017928E-06
  0.343434334      0.300000012      0.953229427      0.935141623      0.370045781       3.96241725E-04  0.315756083       2.19047070E-06
  0.333333343      0.300000012      0.953360736      0.935321867      0.369299084       3.80273385E-04  0.315110266       2.07871199E-06
  0.323232323      0.300000012      0.953478754      0.935483694      0.368595332       3.62777646E-04  0.314502001       1.85705721E-06
  0.313131303      0.300000012      0.953582942      0.935626745      0.367937088       3.44212342E-04  0.313933522       1.76392496E-06
  0.303030312      0.300000012      0.953673542      0.935750723      0.367325902       3.24907596E-04  0.313406140       1.23679638E-06
  0.292929292      0.300000012      0.953750312      0.935855925      0.366762519       3.05230322E-04  0.312920421       9.98377800E-07
  0.282828271      0.300000012      0.953813553      0.935942769      0.366246909       2.85361923E-04  0.312476367       9.62987542E-07
  0.272727281      0.300000012      0.953863919      0.936011851      0.365778625       2.65639275E-04  0.312073588       8.62404704E-07
  0.262626261      0.300000012      0.953902185      0.936064184      0.365356356       2.46287062E-04  0.311710805       6.10947609E-07
  0.252525240      0.300000012      0.953928888      0.936100781      0.364978671       2.27335724E-04  0.311386824       4.47034836E-07
  0.242424250      0.300000012      0.953944981      0.936123013      0.364643127       2.09104532E-04  0.311099499       6.40749931E-07
  0.232323229      0.300000012      0.953951657      0.936132073      0.364347577       1.91647836E-04  0.310846895       5.10364771E-07
  0.222222224      0.300000012      0.953950107      0.936129391      0.364089310       1.75065579E-04  0.310626745      -1.30385160E-07
  0.212121218      0.300000012      0.953940690      0.936116636      0.363865644       1.59356408E-04  0.310436487       5.02914190E-08
  0.202020198      0.300000012      0.953925073      0.936094999      0.363673627       1.44590798E-04  0.310273737      -1.45286322E-07
  0.191919193      0.300000012      0.953903973      0.936066210      0.363510370       1.30741959E-04  0.310135782       8.19563866E-08
  0.181818187      0.300000012      0.953878880      0.936031580      0.363373160       1.17872136E-04  0.310020357      -8.38190317E-08
  0.171717167      0.300000012      0.953850567      0.935992956      0.363258958       1.05845793E-04  0.309924722       2.64495611E-07
  0.161616161      0.300000012      0.953820467      0.935951650      0.363165230       9.46985674E-05  0.309846699       3.12924385E-07
  0.151515156      0.300000012      0.953789413      0.935908735      0.363089561       8.43688686E-05  0.309784174       3.16649675E-08
  0.141414136      0.300000012      0.953758180      0.935865819      0.363029480       7.47531667E-05  0.309734970       3.72529030E-09
  0.131313130      0.300000012      0.953727782      0.935824156      0.362982810       6.58743083E-05  0.309697092       1.22934580E-07
  0.121212125      0.300000012      0.953699172      0.935784638      0.362947434       5.77682113E-05  0.309668809      -1.63912773E-07
  0.111111112      0.300000012      0.953672707      0.935748398      0.362921596       5.02243238E-05  0.309648454       1.49011612E-08
  0.101010099      0.300000012      0.953649342      0.935716391      0.362902969       4.34103786E-05  0.309634089       9.12696123E-08
   9.09090936E-02  0.300000012      0.953629553      0.935689211      0.362890124       3.72903742E-05  0.309624374       5.96046448E-08
   8.08080807E-02  0.300000012      0.953613758      0.935667574      0.362881124       3.18401871E-05  0.309617728       1.26659870E-07
   7.07070678E-02  0.300000012      0.953602314      0.935651898      0.362874418       2.69982720E-05  0.309612751       1.93715096E-07
   6.06060624E-02  0.300000012      0.953595638      0.935642540      0.362868428       2.28106583E-05  0.309608102       2.60770321E-08
   5.05050495E-02  0.300000012      0.953593671      0.935639918      0.362861842       1.92410844E-05  0.309602618       1.28522515E-07
   4.04040404E-02  0.300000012      0.953596532      0.935643613      0.362853438       1.61732041E-05  0.309595287      -1.75088644E-07
   3.03030312E-02  0.300000012      0.953603983      0.935654104      0.362842530       1.34332113E-05  0.309585452       1.00582838E-07
   2.02020202E-02  0.300000012      0.953615963      0.935670674      0.362828851       1.09810298E-05  0.309572995       2.45869160E-07
   1.01010101E-02  0.300000012      0.953632116      0.935692728      0.362812519       8.41792280E-06  0.309558004       8.94069672E-08
   0.00000000      0.289655179      0.953647673      0.935714006      0.362794042       1.08614076E-05  0.309541255       5.58793545E-09
   0.00000000      0.279310346      0.953650892      0.935718358      0.362782329       1.64364101E-05  0.309531063      -6.70552254E-08
   0.00000000      0.268965513      0.953656197      0.935725749      0.362763047       2.15845066E-05  0.309514254       3.72529030E-09
   0.00000000      0.258620679      0.953663528      0.935735643      0.362736702       2.62163558E-05  0.309491336      -1.41561031E-07
   0.00000000      0.248275861      0.953672409      0.935747862      0.362703979       3.02234330E-05  0.309462816      -1.78813934E-07
   0.00000000      0.237931028      0.953682899      0.935762346      0.362665594       3.32406635E-05  0.309429377      -7.45058060E-08
   0.00000000      0.227586210      0.953694642      0.935778439      0.362622529       3.54208132E-05  0.309391886      -6.51925802E-08
   0.00000000      0.217241377      0.953707457      0.935796082      0.362575680       3.64053849E-05  0.309351057      -3.91155481E-08
   0.00000000      0.206896558      0.953720808      0.935814500      0.362526685       3.61615021E-05  0.309308410      -1.86264515E-09
   0.00000000      0.196551725      0.953734457      0.935833275      0.362476736       3.44122127E-05  0.309264868       5.40167093E-08
   0.00000000      0.186206892      0.953747988      0.935851693      0.362427622       3.11344047E-05  0.309222132      -1.67638063E-07
   0.00000000      0.175862074      0.953760684      0.935869277      0.362381101       2.61485093E-05  0.309181571       5.58793545E-08
   0.00000000      0.165517241      0.953772247      0.935885251      0.362339199       1.92214247E-05  0.309145063       1.17346644E-07
   0.00000000      0.155172408      0.953782082      0.935898721      0.362304211       1.02600980E-05  0.309114605       5.77419996E-08
   0.00000000      0.144827589      0.953789651      0.935909033      0.362278283      -9.26923292E-07  0.309092015      -1.11758709E-08
   0.00000000      0.134482756      0.953794003      0.935915053      0.362264156      -1.46029925E-05  0.309079677       5.21540642E-08
   0.00000000      0.124137931      0.953794777      0.935916007      0.362264335      -3.07683222E-05  0.309079796      -1.00582838E-07
   0.00000000      0.113793105      0.953790843      0.935910642      0.362282068      -4.97308465E-05  0.309095174      -2.04890966E-08
   0.00000000      0.103448279      0.953781605      0.935897887      0.362320393      -7.16300710E-05  0.309128463      -9.87201929E-08
   0.00000000       9.31034461E-02  0.953766048      0.935876608      0.362382650      -9.66266307E-05  0.309182584      -1.30385160E-08
   0.00000000       8.27586204E-02  0.953743458      0.935845613      0.362472326      -1.24879691E-04  0.309260577       5.21540642E-08
   0.00000000       7.24137947E-02  0.953712761      0.935803473      0.362593293      -1.56660026E-04  0.309365779       3.35276127E-08
   0.00000000       6.20689653E-02  0.953672886      0.935748696      0.362749636      -1.91864587E-04  0.309501767       6.33299351E-08
   0.00000000       5.17241396E-02  0.953622818      0.935679972      0.362945765      -2.30103047E-04  0.309672415       9.68575478E-08
   0.00000000       4.13793102E-02  0.953561485      0.935595632      0.363186181      -2.70383462E-04  0.309881508       1.11758709E-08
   0.00000000       3.10344826E-02  0.953487813      0.935494483      0.363475949      -3.09752824E-04  0.310133547       5.02914190E-08
   0.00000000       2.06896551E-02  0.953401327      0.935375452      0.363820612      -3.41507461E-04  0.310433358      -1.67638063E-07
   0.00000000       1.03448275E-02  0.953301728      0.935238898      0.364225954      -3.49501875E-04  0.310785681       5.40167093E-08
   1.01942774E-02  -1.06002917E-05  0.953283310      0.935213804      0.364349216      -5.57027874E-04  0.310892195       3.24100256E-07
   2.03885511E-02  -4.05888240E-05  0.953356981      0.935314894      0.364212275      -1.15264533E-03  0.310771763       2.14204192E-07
   3.05827484E-02  -8.74972393E-05  0.953470051      0.935470343      0.363945603      -1.69935462E-03  0.310538709       3.39001417E-07
   4.07768898E-02  -1.49138228E-04  0.953606308      0.935657442      0.363591164      -2.18097679E-03  0.310229570       2.90572643E-07
   5.09709269E-02  -2.23550553E-04  0.953758240      0.935866475      0.363172293      -2.59899977E-03  0.309864640       5.73694706E-07
   6.11648858E-02  -3.08956922E-04  0.953922033      0.936091840      0.362702787      -2.95738410E-03  0.309455723       9.49949026E-07
   7.13587478E-02  -4.03728453E-04  0.954095125      0.936329424      0.362191677      -3.25976079E-03  0.309010684       7.18981028E-07
   8.15525427E-02  -5.06357115E-04  0.954275429      0.936577141      0.361645401      -3.50972987E-03  0.308535039       7.61821866E-07
   9.17462707E-02  -6.15430705E-04  0.954461336      0.936832964      0.361068249      -3.71016678E-03  0.308032304       1.11199915E-06
  0.101939946      -7.29613879E-04  0.954652309      0.937095284      0.360463321      -3.86345200E-03  0.307505399       1.00024045E-06
  0.112133577      -8.47629446E-04  0.954847515      0.937363684      0.359832585      -3.97142395E-03  0.306955814       1.12317502E-06
  0.122327171      -9.68243345E-04  0.955046117      0.937636912      0.359177679      -4.03554086E-03  0.306385040       1.42119825E-06
  0.132520750      -1.09024998E-03  0.955247700      0.937914491      0.358499378      -4.05680621E-03  0.305793732       1.92783773E-06
  0.142714337      -1.21245917E-03  0.955452383      0.938195944      0.357797921      -4.03562421E-03  0.305182159       1.99303031E-06
  0.152907923      -1.33368257E-03  0.955659688      0.938481152      0.357073098      -3.97207169E-03  0.304550171       2.27242708E-06
  0.163101539      -1.45272142E-03  0.955869436      0.938769758      0.356324434      -3.86583898E-03  0.303897351       2.48849392E-06
  0.173295200      -1.56835280E-03  0.956081808      0.939061880      0.355550677      -3.71605786E-03  0.303222656       2.59280205E-06
  0.183488905      -1.67931605E-03  0.956296742      0.939357996      0.354750097      -3.52144102E-03  0.302524596       3.23355198E-06
  0.193682685      -1.78429752E-03  0.956514835      0.939657927      0.353920311      -3.28017212E-03  0.301801294       3.21306288E-06
  0.203876525      -1.88191328E-03  0.956736267      0.939962626      0.353058100      -2.98968796E-03  0.301049948       3.31364572E-06
  0.214070454      -1.97069068E-03  0.956961632      0.940272927      0.352159888      -2.64696893E-03  0.300267547       3.69735062E-06
  0.224264458      -2.04904471E-03  0.957191944      0.940590203      0.351220608      -2.24819197E-03  0.299449891       4.11644578E-06
  0.234458551      -2.11525219E-03  0.957428455      0.940916121      0.350234389      -1.78844261E-03  0.298591971       4.71435487E-06
  0.244652733      -2.16741930E-03  0.957672596      0.941252470      0.349194109      -1.26192614E-03  0.297687888       5.15952706E-06
  0.254846990      -2.20344099E-03  0.957926452      0.941601992      0.348090678      -6.61365921E-04  0.296730101       5.39049506E-06
  0.265041292      -2.22095218E-03  0.958192050      0.941967905      0.346913755       2.22108938E-05  0.295709819       5.83566725E-06
  0.275235593      -2.21726228E-03  0.958472192      0.942354143      0.345650345       7.99868081E-04  0.294616342       6.51925802E-06
  0.285429865      -2.18927371E-03  0.958770454      0.942765176      0.344285041       1.68554427E-03  0.293437004       7.00168312E-06
  0.295624018      -2.13337177E-03  0.959090769      0.943207026      0.342798799       2.69680656E-03  0.292156160       7.87526369E-06
  0.305817962      -2.04527588E-03  0.959438324      0.943686724      0.341168433       3.85604450E-03  0.290755004       9.14186239E-06
  0.316011488      -1.91983546E-03  0.959819317      0.944212556      0.339364946       5.19285630E-03  0.289210230       1.03618950E-05
  0.326204360      -1.75073801E-03  0.960241318      0.944795430      0.337352127       6.74622972E-03  0.287493169       1.20289624E-05
  0.336396307      -1.53008103E-03  0.960713685      0.945447981      0.335083723       8.56957398E-03  0.285567939       1.40033662E-05
  0.346586645      -1.24772848E-03  0.961247683      0.946186364      0.332500279       1.07381688E-02  0.283389479       1.67079270E-05
  0.356774658      -8.90274358E-04  0.961857736      0.947030604      0.329523832       1.33621413E-02  0.280900806       2.03792006E-05
  0.366958946      -4.39326104E-04  0.962563217      0.948008001      0.326050788       1.66308116E-02  0.278031558       2.54493207E-05
  0.377137065       1.33766516E-04  0.963405788      0.949177802      0.321990818       2.13936176E-02  0.274768382       3.36710364E-05
  0.387299746       9.32033930E-04  0.964255273      0.950361013      0.318006516       2.85894573E-02  0.271813959       4.55640256E-05
  0.397434235       2.03104783E-03  0.964840710      0.951184809      0.314846754       3.77980210E-02  0.269921720       6.22402877E-05
  0.407523632       3.48527054E-03  0.965055764      0.951505721      0.312816620       4.89019938E-02  0.269487858       8.75350088E-05
  0.417543113       5.36030158E-03  0.964781284      0.951167226      0.312350363       6.23804107E-02  0.271116972       1.29986554E-04
  0.427456856       7.73026003E-03  0.963736534      0.949797928      0.314418405       7.89004341E-02  0.275974095       2.06261873E-04
  0.437217921       1.06651187E-02  0.961393535      0.946704328      0.320868433       9.90685821E-02  0.286008120       3.51604074E-04
  0.446780443       1.41935814E-02  0.956807435      0.940640569      0.334961832      0.122569539      0.304031610       6.20212406E-04
  0.456144422       1.82216074E-02  0.948537052      0.929686964      0.361505449      0.145779178      0.332757324       1.06087327E-03
  0.465438336       2.24102195E-02  0.935392797      0.912243128      0.403853923      0.158312723      0.371229410       1.65547058E-03
  0.474928796       2.61229333E-02  0.919059038      0.890581727      0.455140322      0.145353019      0.410208762       2.28647143E-03
  0.484786808       2.86871437E-02  0.905232966      0.872388959      0.496405691      0.102809176      0.436433226       2.86825001E-03
  0.494905144       2.98680626E-02  0.898509741      0.863875031      0.513974309       4.68052141E-02  0.444842994       3.49762291E-03
  0.505094886       2.98680626E-02  0.897702992      0.863440573      0.510830760      -7.79349543E-03  0.440264493       4.25221026E-03
  0.515213192       2.86871418E-02  0.899421394      0.866762877      0.491814584      -6.26956075E-02  0.426844090       5.41518629E-03
  0.525071204       2.61229314E-02  0.903658211      0.873903334      0.456428409     -0.114371546      0.404392213       7.04016536E-03
  0.534561634       2.24102195E-02  0.912058294      0.886651456      0.410599321     -0.145596251      0.373428553       8.56860727E-03
  0.543855608       1.82216056E-02  0.923673630      0.903397977      0.366184205     -0.147092536      0.337238997       9.56301019E-03
  0.553219557       1.41935805E-02  0.934770405      0.919116616      0.331431538     -0.128040865      0.302833557       1.00938398E-02
  0.562782109       1.06651178E-02  0.942663431      0.930236161      0.308292508     -0.103495374      0.276674598       1.03475302E-02
  0.572543144       7.73025956E-03  0.947364509      0.936842203      0.294648379      -8.15679803E-02  0.259836257       1.04594957E-02
  0.582456887       5.36030112E-03  0.949918926      0.940427840      0.287398428      -6.39175922E-02  0.250083059       1.05097396E-02
  0.592476368       3.48527008E-03  0.951201022      0.942222416      0.284177721      -4.99392003E-02  0.245013431       1.05278818E-02