 title = "grid"
                                   variables = "x","y","rho","P","u","v","M","S"
 zone n=        3000  e =        5742  et=quadrilateral, f=fepoint
   0.00000000       0.00000000      0.953510106      0.935525060      0.363318801      -3.16844671E-04  0.309998035      -1.11758709E-08
   1.00000000       0.00000000      0.944368839      0.932335436      0.325303584       5.91105199E-04  0.276700705       1.00712236E-02
   1.00000000      0.300000012      0.951335967      0.932549119      0.370756090       1.78617356E-05  0.316486627       9.75467265E-06
   0.00000000      0.300000012      0.954351425      0.936680615      0.360008031      -1.41887142E-06  0.307118922      -3.20374966E-07
   1.00000000       1.03448275E-02  0.945913553      0.932394922      0.332109869       8.77997954E-04  0.282712519       7.84695335E-03
   1.00000000       2.06896551E-02  0.947682381      0.932437003      0.340493917       1.12994167E-03  0.290114462       5.27655892E-03
   1.00000000       3.10344826E-02  0.948856771      0.932466567      0.346909791       1.27402355E-03  0.295759827       3.57444398E-03
   1.00000000       4.13793102E-02  0.949652135      0.932487786      0.352127284       1.34640303E-03  0.300330549       2.42415071E-03
   1.00000000       5.17241396E-02  0.950193584      0.932503283      0.356400311       1.36953034E-03  0.304059178       1.64275803E-03
   1.00000000       6.20689653E-02  0.950560987      0.932514906      0.359864205       1.35822536E-03  0.307071716       1.11397915E-03
   1.00000000       7.24137947E-02  0.950809717      0.932523966      0.362641931       1.32279284E-03  0.309480786       7.57383183E-04
   1.00000000       8.27586204E-02  0.950977266      0.932530820      0.364831775       1.27050898E-03  0.311375707       5.18064946E-04
   1.00000000       9.31034461E-02  0.951089680      0.932536364      0.366525203       1.20666134E-03  0.312838405       3.58587131E-04
   1.00000000      0.103448279      0.951165617      0.932540536      0.367811888       1.13527069E-03  0.313948184       2.51263380E-04
   1.00000000      0.113793105      0.951217473      0.932544053      0.368771762       1.05935300E-03  0.314775288       1.78681687E-04
   1.00000000      0.124137931      0.951253235      0.932546914      0.369473070       9.81203280E-04  0.315379202       1.29107386E-04
   1.00000000      0.134482756      0.951277792      0.932549119      0.369974971       9.02631553E-04  0.315811157       9.53916460E-05
   1.00000000      0.144827589      0.951295078      0.932551026      0.370325893       8.25060823E-04  0.316113085       7.19297677E-05
   1.00000000      0.155172408      0.951307297      0.932552755      0.370564401       7.49217754E-04  0.316318274       5.58644533E-05
   1.00000000      0.165517241      0.951316357      0.932554007      0.370720357       6.75971736E-04  0.316452593       4.38354909E-05
   1.00000000      0.175862074      0.951323450      0.932555258      0.370817065       6.05788606E-04  0.316536009       3.47886235E-05
   1.00000000      0.186206892      0.951328695      0.932556093      0.370872021       5.38845256E-04  0.316583544       2.79601663E-05
   1.00000000      0.196551725      0.951332331      0.932556868      0.370897621       4.75340028E-04  0.316605806       2.33668834E-05
   1.00000000      0.206896558      0.951335430      0.932557523      0.370903432       4.15238697E-04  0.316611111       1.95130706E-05
   1.00000000      0.217241377      0.951337814      0.932558119      0.370896161       3.58439662E-04  0.316605151       1.67023391E-05
   1.00000000      0.227586210      0.951339722      0.932558656      0.370880544       3.04863584E-04  0.316591978       1.44317746E-05
   1.00000000      0.237931028      0.951341212      0.932558954      0.370860130       2.54202343E-04  0.316574723       1.26007944E-05
   1.00000000      0.248275861      0.951342106      0.932559133      0.370837420       2.06142649E-04  0.316555440       1.14161521E-05
   1.00000000      0.258620679      0.951342881      0.932559252      0.370814174       1.60445765E-04  0.316535711       1.04289502E-05
   1.00000000      0.268965513      0.951343119      0.932559133      0.370791346       1.16982032E-04  0.316516250       9.96887684E-06
   1.00000000      0.279310346      0.951343000      0.932558596      0.370770037       7.57155867E-05  0.316498101       9.51997936E-06
   1.00000000      0.289655179      0.951342344      0.932557821      0.370752424       3.70609669E-05  0.316483080       9.68016684E-06
  0.989898980      0.300000012      0.951363742      0.932587206      0.370728582       2.54064471E-05  0.316461295       9.67644155E-06
  0.979797959      0.300000012      0.951426744      0.932673752      0.370674342       2.80486529E-05  0.316410810       9.84221697E-06
  0.969696999      0.300000012      0.951485336      0.932754278      0.370622218       2.99038074E-05  0.316362411       9.95211303E-06
  0.959595978      0.300000012      0.951539218      0.932827890      0.370574057       3.12679877E-05  0.316317767       9.54046845E-06
  0.949494958      0.300000012      0.951587439      0.932893813      0.370531172       3.21570151E-05  0.316278011       9.27783549E-06
  0.939393938      0.300000012      0.951629639      0.932951748      0.370494694       3.26429763E-05  0.316244066       9.29087400E-06
  0.929292917      0.300000012      0.951665580      0.933001101      0.370465666       3.26537011E-05  0.316216886       9.32812691E-06
  0.919191897      0.300000012      0.951695025      0.933041632      0.370445341       3.22140622E-05  0.316197574       9.48645175E-06
  0.909090936      0.300000012      0.951718032      0.933072984      0.370434493       3.13216951E-05  0.316186786       9.23871994E-06
  0.898989916      0.300000012      0.951733887      0.933094561      0.370434493       2.98749874E-05  0.316185802       9.00961459E-06
  0.888888896      0.300000012      0.951742470      0.933106482      0.370446414       2.78766529E-05  0.316195369       9.17725265E-06
  0.878787875      0.300000012      0.951743782      0.933108151      0.370471328       2.52294958E-05  0.316216558       9.05804336E-06
  0.868686855      0.300000012      0.951737583      0.933099568      0.370510459       2.19839440E-05  0.316250384       8.90530646E-06
  0.858585835      0.300000012      0.951723516      0.933080614      0.370565236       1.79960116E-05  0.316298008       9.28901136E-06
  0.848484874      0.300000012      0.951701880      0.933050871      0.370636702       1.32363402E-05  0.316360444       9.26852226E-06
  0.838383853      0.300000012      0.951672554      0.933010638      0.370726436       7.71440773E-06  0.316439003       9.32626426E-06
  0.828282833      0.300000012      0.951635420      0.932959318      0.370835960       1.37946222E-06  0.316534996       8.93883407E-06
  0.818181813      0.300000012      0.951590240      0.932897210      0.370966583      -5.75959166E-06  0.316649526       8.84570181E-06
  0.808080792      0.300000012      0.951536953      0.932823956      0.371119976      -1.37844991E-05  0.316784054       8.67433846E-06
  0.797979772      0.300000012      0.951475620      0.932739675      0.371297538      -2.26731208E-05  0.316939712       8.55326653E-06
  0.787878811      0.300000012      0.951406002      0.932644129      0.371500820      -3.24413777E-05  0.317117870       8.58865678E-06
  0.777777791      0.300000012      0.951328099      0.932537019      0.371731430      -4.30128312E-05  0.317319959       8.39121640E-06
  0.767676771      0.300000012      0.951242030      0.932418585      0.371990502      -5.43444294E-05  0.317546934       8.03172588E-06
  0.757575750      0.300000012      0.951147377      0.932288587      0.372279555      -6.64021354E-05  0.317800015       7.86967576E-06
  0.747474730      0.300000012      0.951044261      0.932147145      0.372599453      -7.91333732E-05  0.318079948       7.94231892E-06
  0.737373710      0.300000012      0.950932920      0.931994081      0.372951239      -9.23001353E-05  0.318387806       7.64802098E-06
  0.727272749      0.300000012      0.950813115      0.931829751      0.373335570      -1.05870386E-04  0.318723947       7.68154860E-06
  0.717171729      0.300000012      0.950685084      0.931654096      0.373752505      -1.19624747E-04  0.319088489       7.73370266E-06
  0.707070708      0.300000012      0.950549066      0.931467474      0.374201864      -1.33410169E-04  0.319481254       7.65174627E-06
  0.696969688      0.300000012      0.950405300      0.931270421      0.374682933      -1.46901672E-04  0.319901645       7.89016485E-06
  0.686868668      0.300000012      0.950254858      0.931063890      0.375194192      -1.59741729E-04  0.320348322       7.69831240E-06
  0.676767647      0.300000012      0.950098097      0.930848897      0.375733644      -1.71664360E-04  0.320819497       7.75046647E-06
  0.666666687      0.300000012      0.949936211      0.930626929      0.376297832      -1.82226955E-04  0.321312159       7.83614814E-06
  0.656565666      0.300000012      0.949770510      0.930399537      0.376882643      -1.90875493E-04  0.321822733       7.70948827E-06
  0.646464646      0.300000012      0.949602783      0.930169046      0.377482563      -1.97160727E-04  0.322346538       7.14696944E-06
  0.636363626      0.300000012      0.949434698      0.929938555      0.378090829      -2.00542112E-04  0.322877377       7.19912350E-06
  0.626262605      0.300000012      0.949268758      0.929710925      0.378699154      -2.00426817E-04  0.323408186       7.05569983E-06
  0.616161644      0.300000012      0.949107647      0.929489851      0.379297853      -1.96197230E-04  0.323930502       6.92345202E-06
  0.606060624      0.300000012      0.948954403      0.929279745      0.379875928      -1.87113546E-04  0.324434638       6.86012208E-06
  0.595959604      0.300000012      0.948812664      0.929085195      0.380420566      -1.72900109E-04  0.324909568       6.58817589E-06
  0.585858583      0.300000012      0.948685467      0.928910673      0.380919009      -1.53380810E-04  0.325344026       6.48386776E-06
  0.575757563      0.300000012      0.948576510      0.928761125      0.381357431      -1.28715343E-04  0.325725973       6.28270209E-06
  0.565656543      0.300000012      0.948488653      0.928640306      0.381723315      -9.94138245E-05  0.326044619       5.81890345E-06
  0.555555582      0.300000012      0.948424280      0.928551972      0.382005095      -6.62721286E-05  0.326289684       5.69038093E-06
  0.545454562      0.300000012      0.948385477      0.928498805      0.382193148      -3.05381145E-05  0.326453000       5.74998558E-06
  0.535353541      0.300000012      0.948373318      0.928482115      0.382280797       6.37731046E-06  0.326528698       5.69410622E-06
  0.525252521      0.300000012      0.948388278      0.928502619      0.382264346       4.32257948E-05  0.326513618       5.72577119E-06
  0.515151501      0.300000012      0.948430359      0.928560019      0.382143021       7.92998326E-05  0.326407135       5.46127558E-06
  0.505050480      0.300000012      0.948499441      0.928654611      0.381917268       1.14569310E-04  0.326209605       5.28432429E-06
  0.494949490      0.300000012      0.948595047      0.928785563      0.381588966       1.49260974E-04  0.325922638       5.22099435E-06
  0.484848499      0.300000012      0.948715866      0.928951323      0.381161749       1.83018972E-04  0.325549424       5.34020364E-06
  0.474747479      0.300000012      0.948860347      0.929149449      0.380641550       2.15555745E-04  0.325095236       5.42774796E-06
  0.464646459      0.300000012      0.949026883      0.929377615      0.380035102       2.47543474E-04  0.324565917       5.29550016E-06
  0.454545468      0.300000012      0.949213505      0.929633260      0.379348248       2.79101194E-04  0.323966652       5.02914190E-06
  0.444444448      0.300000012      0.949417651      0.929913104      0.378588140       3.08868592E-04  0.323303640       4.94159758E-06
  0.434343427      0.300000012      0.949636161      0.930212319      0.377764732       3.34840384E-04  0.322585732       4.47034836E-06
  0.424242437      0.300000012      0.949864805      0.930525601      0.376890659       3.55537923E-04  0.321823865       4.19840217E-06
  0.414141417      0.300000012      0.950100005      0.930848062      0.375979751       3.70376423E-04  0.321030229       4.02145088E-06
  0.404040396      0.300000012      0.950338185      0.931174219      0.375045776       3.79120262E-04  0.320216805       3.39560211E-06
  0.393939406      0.300000012      0.950575590      0.931499898      0.374102086       3.82277736E-04  0.319395125       3.43471766E-06
  0.383838385      0.300000012      0.950809777      0.931821167      0.373160362       3.80244775E-04  0.318575442       3.36207449E-06
  0.373737365      0.300000012      0.951038659      0.932134926      0.372231185       3.73735995E-04  0.317766905       3.05660069E-06
  0.363636374      0.300000012      0.951260149      0.932438433      0.371323526       3.63390602E-04  0.316977322       2.66730785E-06
  0.353535354      0.300000012      0.951472700      0.932729661      0.370444655       3.49986221E-04  0.316213071       2.12155282E-06
  0.343434334      0.300000012      0.951675117      0.933007061      0.369600147       3.34391021E-04  0.315478802       1.66520476E-06
  0.333333343      0.300000012      0.951867163      0.933270216      0.368794113       3.17084719E-04  0.314778179       1.20885670E-06
  0.323232323      0.300000012      0.952048242      0.933518469      0.368029505       2.98515864E-04  0.314113617       8.66129994E-07
  0.313131303      0.300000012      0.952218235      0.933751643      0.367308408       2.79191503E-04  0.313487023       7.02217221E-07
  0.303030312      0.300000012      0.952377260      0.933969915      0.366631776       2.59504421E-04  0.312899083       6.44475222E-07
  0.292929292      0.300000012      0.952525795      0.934173703      0.365999907       2.39743254E-04  0.312350035       4.20957804E-07
  0.282828271      0.300000012      0.952664137      0.934363604      0.365412354       2.20108253E-04  0.311839551       3.68803740E-07
  0.272727281      0.300000012      0.952792883      0.934540391      0.364868343       2.00821829E-04  0.311366916       4.15369868E-07
  0.262626261      0.300000012      0.952912807      0.934705079      0.364366591       1.82104559E-04  0.310930878       3.74391675E-07
  0.252525240      0.300000012      0.953024566      0.934858382      0.363905579       1.64100187E-04  0.310530245       1.93715096E-07
  0.242424250      0.300000012      0.953128755      0.935001314      0.363483340       1.46886116E-04  0.310163140       3.16649675E-08
  0.232323229      0.300000012      0.953225911      0.935134649      0.363097936       1.30627945E-04  0.309827983      -9.87201929E-08
  0.222222224      0.300000012      0.953316867      0.935259461      0.362747073       1.15325514E-04  0.309522688      -1.49011612E-07
  0.212121218      0.300000012      0.953402042      0.935376585      0.362428516       1.01033176E-04  0.309245378      -5.58793545E-08
  0.202020198      0.300000012      0.953482449      0.935487032      0.362139940       8.78828796E-05  0.308993936       3.72529030E-09
  0.191919193      0.300000012      0.953558266      0.935591280      0.361879081       7.58251117E-05  0.308766395       8.38190317E-08
  0.181818187      0.300000012      0.953630030      0.935689986      0.361643374       6.48597997E-05  0.308560610       2.40281224E-07
  0.171717167      0.300000012      0.953698337      0.935783803      0.361430883       5.49910001E-05  0.308374882       1.93715096E-07
  0.161616161      0.300000012      0.953763306      0.935873091      0.361239314       4.61864583E-05  0.308207214       2.10478902E-07
  0.151515156      0.300000012      0.953825176      0.935958207      0.361066788       3.83491570E-05  0.308056027       4.00468707E-07
  0.141414136      0.300000012      0.953884125      0.936039388      0.360911578       3.15474681E-05  0.307919770       5.75557351E-07
  0.131313130      0.300000012      0.953940451      0.936116934      0.360771954       2.55928044E-05  0.307796955       7.71135092E-07
  0.121212125      0.300000012      0.953994095      0.936190546      0.360646665       2.03918462E-05  0.307686627       6.98491931E-07
  0.111111112      0.300000012      0.954045236      0.936260283      0.360534608       1.59287410E-05  0.307587802       6.89178705E-08
  0.101010099      0.300000012      0.954092979      0.936325788      0.360434920       1.20902387E-05  0.307499677      -2.60770321E-08
   9.09090936E-02  0.300000012      0.954137623      0.936387122      0.360346854       8.83253051E-06  0.307421714       4.84287739E-08
   8.08080807E-02  0.300000012      0.954178810      0.936443746      0.360270083       6.08628716E-06  0.307353556       7.45058060E-09
   7.07070678E-02  0.300000012      0.954216421      0.936495364      0.360203862       3.79661083E-06  0.307294667      -1.86264515E-08
   6.06060624E-02  0.300000012      0.954249918      0.936541378      0.360148013       1.87197963E-06  0.307244837      -3.35276127E-08
   5.05050495E-02  0.300000012      0.954279184      0.936581552      0.360102117       3.60944682E-07  0.307203799      -1.00582838E-07
   4.04040404E-02  0.300000012      0.954303920      0.936615407      0.360065907      -7.18507465E-07  0.307171345      -1.89989805E-07
   3.03030312E-02  0.300000012      0.954323530      0.936642468      0.360039026      -1.40115617E-06  0.307147115      -9.87201929E-08
   2.02020202E-02  0.300000012      0.954338074      0.936662495      0.360020906      -1.67365806E-06  0.307130724      -6.33299351E-08
   1.01010101E-02  0.300000012      0.954347432      0.936675310      0.360010922      -1.52928408E-06  0.307121634      -9.49949026E-08
   0.00000000      0.289655179      0.954351604      0.936681092      0.360007912      -3.72735781E-06  0.307118773      -1.30385160E-08
   0.00000000      0.279310346      0.954351187      0.936680734      0.360009879      -6.59300758E-06  0.307120442       2.27242708E-07
   0.00000000      0.268965513      0.954350293      0.936679423      0.360015035      -9.45860211E-06  0.307124913       1.06170774E-07
   0.00000000      0.258620679      0.954348743      0.936677098      0.360023052      -1.23287991E-05  0.307131886      -9.31322575E-08
   0.00000000      0.248275861      0.954346359      0.936673880      0.360034198      -1.54324698E-05  0.307141542      -7.82310963E-08
   0.00000000      0.237931028      0.954343140      0.936669588      0.360048622      -1.87823880E-05  0.307154030       5.40167093E-08
   0.00000000      0.227586210      0.954339266      0.936664224      0.360066354      -2.24847554E-05  0.307169408       4.65661287E-08
   0.00000000      0.217241377      0.954334438      0.936657548      0.360088110      -2.67212581E-05  0.307188272       9.31322575E-09
   0.00000000      0.206896558      0.954328358      0.936649382      0.360114247      -3.14507088E-05  0.307210922       1.78813934E-07
   0.00000000      0.196551725      0.954321146      0.936639369      0.360145330      -3.67825814E-05  0.307237953       1.19209290E-07
   0.00000000      0.186206892      0.954312623      0.936627507      0.360181957      -4.29609900E-05  0.307269752      -8.56816769E-08
   0.00000000      0.175862074      0.954302311      0.936613500      0.360225201      -4.99584930E-05  0.307307303       1.15483999E-07
   0.00000000      0.165517241      0.954290152      0.936596692      0.360275894      -5.80183696E-05  0.307351321      -1.67638063E-08
   0.00000000      0.155172408      0.954275787      0.936576903      0.360335320      -6.72663009E-05  0.307402968      -6.89178705E-08
   0.00000000      0.144827589      0.954258740      0.936553597      0.360404640      -7.78257672E-05  0.307463199       1.06170774E-07
   0.00000000      0.134482756      0.954238892      0.936526239      0.360485256      -8.98382350E-05  0.307533234      -2.79396772E-08
   0.00000000      0.124137931      0.954215765      0.936494291      0.360578746      -1.03535276E-04  0.307614505      -2.40281224E-07
   0.00000000      0.113793105      0.954188764      0.936457217      0.360686928      -1.19072283E-04  0.307708561      -2.23517418E-07
   0.00000000      0.103448279      0.954157352      0.936414063      0.360812098      -1.36798582E-04  0.307817370      -1.52736902E-07
   0.00000000       9.31034461E-02  0.954120815      0.936363995      0.360956281      -1.56849375E-04  0.307942718      -2.04890966E-08
   0.00000000       8.27586204E-02  0.954078853      0.936306298      0.361122280      -1.79408191E-04  0.308087051      -1.17346644E-07
   0.00000000       7.24137947E-02  0.954030335      0.936239779      0.361312777      -2.04700002E-04  0.308252722       6.89178705E-08
   0.00000000       6.20689653E-02  0.953974724      0.936163366      0.361531079      -2.32863822E-04  0.308442593       6.51925802E-08
   0.00000000       5.17241396E-02  0.953911066      0.936075926      0.361780673      -2.63623777E-04  0.308659673       9.68575478E-08
   0.00000000       4.13793102E-02  0.953838527      0.935976148      0.362065762      -2.95990409E-04  0.308907598      -3.72529030E-08
   0.00000000       3.10344826E-02  0.953756094      0.935862958      0.362390757      -3.27220681E-04  0.309190273       3.53902578E-08
   0.00000000       2.06896551E-02  0.953663170      0.935735285      0.362760782      -3.50757124E-04  0.309512049       1.11758709E-08
   0.00000000       1.03448275E-02  0.953559935      0.935593545      0.363181591      -3.50525224E-04  0.309877753       5.02914190E-08
   1.01942774E-02  -1.06002917E-05  0.953534603      0.935558856      0.363315314      -5.55680075E-04  0.309993684       1.69500709E-07
   2.03885511E-02  -4.05888240E-05  0.953591764      0.935637236      0.363197714      -1.15356385E-03  0.309890866      -1.86264515E-09
   3.05827484E-02  -8.74972393E-05  0.953691483      0.935774386      0.362950385      -1.70315499E-03  0.309675157       2.21654773E-07
   4.07768898E-02  -1.49138228E-04  0.953817546      0.935947955      0.362615526      -2.18816265E-03  0.309383422       6.14672899E-07
   5.09709269E-02  -2.23550553E-04  0.953962982      0.936147809      0.362216771      -2.61014560E-03  0.309036195       6.76140189E-07
   6.11648858E-02  -3.08956922E-04  0.954123676      0.936368704      0.361768425      -2.97271647E-03  0.308645666       7.72997737E-07
   7.13587478E-02  -4.03728453E-04  0.954297066      0.936606824      0.361279428      -3.27968132E-03  0.308219612       6.68689609E-07
   8.15525427E-02  -5.06357115E-04  0.954481363      0.936860323      0.360756040      -3.53454147E-03  0.307763249       9.07108188E-07
   9.17462707E-02  -6.15430705E-04  0.954675496      0.937127173      0.360202461      -3.73998773E-03  0.307280302       9.89064574E-07
  0.101939946      -7.29613879E-04  0.954878628      0.937406600      0.359621495      -3.89845227E-03  0.306773067       1.25728548E-06
  0.112133577      -8.47629446E-04  0.955090582      0.937698007      0.359014690      -4.01171669E-03  0.306242973       1.36904418E-06
  0.122327171      -9.68243345E-04  0.955311000      0.938001215      0.358383089      -4.08117846E-03  0.305690765       1.65775418E-06
  0.132520750      -1.09024998E-03  0.955539703      0.938315630      0.357726783      -4.10758518E-03  0.305116683       1.61863863E-06
  0.142714337      -1.21245917E-03  0.955776393      0.938641310      0.357045531      -4.09142580E-03  0.304520398       1.90921128E-06
  0.152907923      -1.33368257E-03  0.956021130      0.938978016      0.356338322      -4.03275667E-03  0.303901136       2.12527812E-06
  0.163101539      -1.45272142E-03  0.956274211      0.939326346      0.355603665      -3.93110514E-03  0.303257585       2.52388418E-06
  0.173295200      -1.56835280E-03  0.956535637      0.939686060      0.354839712      -3.78558994E-03  0.302588284       2.70269811E-06
  0.183488905      -1.67931605E-03  0.956805646      0.940057397      0.354044169      -3.59484996E-03  0.301891237       2.65054405E-06
  0.193682685      -1.78429752E-03  0.957084358      0.940440893      0.353214234      -3.35709774E-03  0.301164061       2.73622572E-06
  0.203876525      -1.88191328E-03  0.957372010      0.940836966      0.352346301      -3.06982035E-03  0.300403774       3.12551856E-06
  0.214070454      -1.97069068E-03  0.957669079      0.941245973      0.351436287      -2.73001939E-03  0.299606949       3.42167914E-06
  0.224264458      -2.04904471E-03  0.957976282      0.941668808      0.350479245      -2.33371207E-03  0.298769474       3.49432230E-06
  0.234458551      -2.11525219E-03  0.958293855      0.942106485      0.349469602      -1.87625200E-03  0.297886640       4.20399010E-06
  0.244652733      -2.16741930E-03  0.958622932      0.942560017      0.348400563      -1.35185290E-03  0.296952844       4.77768481E-06
  0.254846990      -2.20344099E-03  0.958965003      0.943031251      0.347263962      -7.53236120E-04  0.295961380       5.12413681E-06
  0.265041292      -2.22095218E-03  0.959321499      0.943522573      0.346049994      -7.15495335E-05  0.294904083       5.59166074E-06
  0.275235593      -2.21726228E-03  0.959694147      0.944036245      0.344746619       7.04300066E-04  0.293771029       6.17094338E-06
  0.285429865      -2.18927371E-03  0.960085392      0.944575906      0.343339562       1.58798683E-03  0.292550564       7.02217221E-06
  0.295624018      -2.13337177E-03  0.960498571      0.945145845      0.341811061       2.59710848E-03  0.291228294       7.87340105E-06
  0.305817962      -2.04527588E-03  0.960937679      0.945751786      0.340138942       3.75395874E-03  0.289786279       8.86246562E-06
  0.316011488      -1.91983546E-03  0.961407602      0.946400702      0.338295668       5.08798007E-03  0.288202524       1.02836639E-05
  0.326204360      -1.75073801E-03  0.961914837      0.947101235      0.336246103       6.63802680E-03  0.286449432       1.18203461E-05
  0.336396307      -1.53008103E-03  0.962467611      0.947865248      0.333945483       8.45728628E-03  0.284492314       1.38375908E-05
  0.346586645      -1.24772848E-03  0.963076174      0.948706865      0.331335306       1.06208557E-02  0.282287061       1.64397061E-05
  0.356774658      -8.90274358E-04  0.963753700      0.949644983      0.328338891       1.32383415E-02  0.279777914       2.02842057E-05
  0.366958946      -4.39326104E-04  0.964518547      0.950704873      0.324853987       1.64983310E-02  0.276895523       2.50618905E-05
  0.377137065       1.33766516E-04  0.965410948      0.951944768      0.320791602       2.12476626E-02  0.273627490       3.36784869E-05
  0.387299746       9.32033930E-04  0.966300964      0.953185201      0.316812783       2.84213275E-02  0.270674199       4.58452851E-05
  0.397434235       2.03104783E-03  0.966918945      0.954055071      0.313664079       3.76002528E-02  0.268786371       6.29518181E-05
  0.407523632       3.48527054E-03  0.967158973      0.954411149      0.311650217       4.86684106E-02  0.268359303       8.86581838E-05
  0.417543113       5.36030158E-03  0.966902256      0.954097509      0.311205477       6.21042997E-02  0.269996464       1.31586567E-04
  0.427456856       7.73026003E-03  0.965869665      0.952745020      0.313297421       7.85750821E-02  0.274859071       2.08951533E-04
  0.437217921       1.06651187E-02  0.963536263      0.949662507      0.319768488       9.86871570E-02  0.284889877       3.54571268E-04
  0.446780443       1.41935814E-02  0.958959877      0.943607569      0.333872080      0.122129224      0.302893668       6.23552129E-04
  0.456144422       1.82216074E-02  0.950704277      0.932665408      0.360403061      0.145289391      0.331576198       1.06431171E-03
  0.465438336       2.24102195E-02  0.937581062      0.915235817      0.402711511      0.157810405      0.369988650       1.65937096E-03
  0.474928796       2.61229333E-02  0.921263754      0.893577516      0.453958333      0.144909665      0.408929437       2.29023397E-03
  0.484786808       2.86871437E-02  0.907426834      0.875352025      0.495247275      0.102497779      0.435191095       2.87012756E-03
  0.494905144       2.98680626E-02  0.900660098      0.866768777      0.512932122       4.66429628E-02  0.443724036       3.49524245E-03
  0.505094886       2.98680626E-02  0.899801672      0.866260469      0.509945452      -7.83530809E-03  0.439298898       4.24363464E-03
  0.515213192       2.86871418E-02  0.901480854      0.869528234      0.491082311      -6.26469702E-02  0.426022023       5.39854914E-03
  0.525071204       2.61229314E-02  0.905694246      0.876637816      0.455835074     -0.114255600      0.403696984       7.01352954E-03
  0.534561634       2.24102195E-02  0.914084494      0.889379382      0.410122126     -0.145442337      0.372839957       8.53375345E-03
  0.543855608       1.82216056E-02  0.925699711      0.906137586      0.365795702     -0.146933869      0.336739451       9.52344947E-03
  0.553219557       1.41935805E-02  0.936799526      0.921874106      0.331111431     -0.127903879      0.302411824       1.00537110E-02
  0.562782109       1.06651178E-02  0.944693506      0.933009267      0.308033228     -0.103392631      0.276323587       1.03125162E-02
  0.572543144       7.73025956E-03  0.949390233      0.939625025      0.294455528      -8.15015063E-02  0.259555519       1.04350727E-02
  0.582456887       5.36030112E-03  0.951933563      0.943213105      0.287287384      -6.38845414E-02  0.249880090       1.05010495E-02
  0.592476368       3.48527008E-03  0.953199089      0.945002496      0.284166902      -4.99330275E-02  0.244899631       1.05363633E-02