 title = "grid"
                                   variables = "x","y","rho","P","u","v","M","S"
 zone n=        3000  e =        5742  et=quadrilateral, f=fepoint
   0.00000000       0.00000000      0.953733444      0.935831964      0.362443179      -3.18076491E-04  0.309236437       1.00582838E-07
   1.00000000       0.00000000      0.944313765      0.932291925      0.324602395       5.82174282E-04  0.276102662       1.01062041E-02
   1.00000000      0.300000012      0.951341629      0.932556450      0.371884167       2.08957990E-05  0.317449272       9.24617052E-06
   0.00000000      0.300000012      0.954226851      0.936509848      0.360461235       6.60720161E-06  0.307513505       1.71363354E-07
   1.00000000       1.03448275E-02  0.945868969      0.932353914      0.331428796       8.72788834E-04  0.282132328       7.86895305E-03
   1.00000000       2.06896551E-02  0.947646320      0.932395756      0.339846671       1.12929905E-03  0.289563864       5.28560206E-03
   1.00000000       3.10344826E-02  0.948824883      0.932425916      0.346300900       1.27735117E-03  0.295242190       3.57787311E-03
   1.00000000       4.13793102E-02  0.949622333      0.932447851      0.351564348       1.35278434E-03  0.299852163       2.42521986E-03
   1.00000000       5.17241396E-02  0.950164974      0.932464540      0.355890453       1.37818768E-03  0.303625941       1.64339133E-03
   1.00000000       6.20689653E-02  0.950533628      0.932477772      0.359414488       1.36855629E-03  0.306689709       1.11442618E-03
   1.00000000       7.24137947E-02  0.950783312      0.932488263      0.362259418       1.33430795E-03  0.309156001       7.57979229E-04
   1.00000000       8.27586204E-02  0.950952053      0.932496965      0.364522874       1.28291885E-03  0.311113626       5.18886372E-04
   1.00000000       9.31034461E-02  0.951066315      0.932504475      0.366295040       1.21999241E-03  0.312643468       3.58732417E-04
   1.00000000      0.103448279      0.951143920      0.932510793      0.367665201       1.14945718E-03  0.313824505       2.51254067E-04
   1.00000000      0.113793105      0.951197326      0.932516515      0.368712425       1.07435987E-03  0.314725995       1.78832561E-04
   1.00000000      0.124137931      0.951234639      0.932521582      0.369504154       9.97116789E-04  0.315406978       1.29334629E-04
   1.00000000      0.134482756      0.951261044      0.932526350      0.370098680       9.19394195E-04  0.315917879       9.56226140E-05
   1.00000000      0.144827589      0.951280117      0.932530642      0.370543510       8.42638896E-04  0.316299856       7.21588731E-05
   1.00000000      0.155172408      0.951294243      0.932534754      0.370875806       7.67658988E-04  0.316585004       5.57545573E-05
   1.00000000      0.165517241      0.951305330      0.932538450      0.371124685       6.95201801E-04  0.316798568       4.33586538E-05
   1.00000000      0.175862074      0.951314151      0.932541966      0.371312678       6.25630433E-04  0.316959769       3.41869891E-05
   1.00000000      0.186206892      0.951320827      0.932545424      0.371455938       5.59207110E-04  0.317082494       2.80234963E-05
   1.00000000      0.196551725      0.951326072      0.932548463      0.371565819       4.96049295E-04  0.317176580       2.35699117E-05
   1.00000000      0.206896558      0.951330841      0.932551205      0.371651113       4.36095957E-04  0.317249656       1.94981694E-05
   1.00000000      0.217241377      0.951334655      0.932554007      0.371717602       3.79292847E-04  0.317306519       1.69351697E-05
   1.00000000      0.227586210      0.951337993      0.932556391      0.371769160       3.25401546E-04  0.317350656       1.45509839E-05
   1.00000000      0.237931028      0.951340973      0.932558596      0.371808350       2.74169463E-04  0.317384213       1.25840306E-05
   1.00000000      0.248275861      0.951342881      0.932560384      0.371837318       2.25374577E-04  0.317408890       1.16452575E-05
   1.00000000      0.258620679      0.951344669      0.932561934      0.371857226       1.78528455E-04  0.317425877       1.06412917E-05
   1.00000000      0.268965513      0.951345980      0.932563126      0.371868849       1.33226713E-04  0.317435831       1.00452453E-05
   1.00000000      0.279310346      0.951347113      0.932564199      0.371872813       8.89796720E-05  0.317439228       9.49762762E-06
   1.00000000      0.289655179      0.951348007      0.932565153      0.371871382       4.50272673E-05  0.317437947       9.26107168E-06
  0.989898980      0.300000012      0.951373339      0.932599843      0.371844500       2.99801231E-05  0.317413330       9.10647213E-06
  0.979797959      0.300000012      0.951449215      0.932703912      0.371765018       2.85707556E-05  0.317340463       9.08039510E-06
  0.969696999      0.300000012      0.951526821      0.932810545      0.371683449       2.70590645E-05  0.317265600       9.23313200E-06
  0.959595978      0.300000012      0.951605797      0.932918847      0.371600986       2.53837570E-05  0.317189991       9.10088420E-06
  0.949494958      0.300000012      0.951685250      0.933028042      0.371518582       2.35466632E-05  0.317114323       9.26852226E-06
  0.939393938      0.300000012      0.951764762      0.933137178      0.371437728       2.14278753E-05  0.317040026       9.29459929E-06
  0.929292917      0.300000012      0.951843262      0.933244824      0.371359915       1.90490009E-05  0.316968381       9.11206007E-06
  0.919191897      0.300000012      0.951920092      0.933350384      0.371286601       1.63453151E-05  0.316900671       9.23499465E-06
  0.909090936      0.300000012      0.951994479      0.933452427      0.371219218       1.33537551E-05  0.316838205       9.16235149E-06
  0.898989916      0.300000012      0.952065647      0.933550119      0.371159494       1.00230600E-05  0.316782504       9.17352736E-06
  0.888888896      0.300000012      0.952132523      0.933642149      0.371109366       6.20594392E-06  0.316735208       9.40077007E-06
  0.878787875      0.300000012      0.952194750      0.933727384      0.371070445       1.96497717E-06  0.316697896       9.22195613E-06
  0.868686855      0.300000012      0.952251375      0.933805048      0.371044576      -2.79805886E-06  0.316672057       9.14372504E-06
  0.858585835      0.300000012      0.952301443      0.933873415      0.371033728      -8.07228662E-06  0.316659540       8.70600343E-06
  0.848484874      0.300000012      0.952344239      0.933932066      0.371039897      -1.39367467E-05  0.316661984       8.59797001E-06
  0.838383853      0.300000012      0.952379048      0.933979630      0.371065080      -2.03677555E-05  0.316681206       8.39494169E-06
  0.828282833      0.300000012      0.952405155      0.934015334      0.371111244      -2.74859194E-05  0.316718876       8.24965537E-06
  0.818181813      0.300000012      0.952421844      0.934037983      0.371180445      -3.52022726E-05  0.316776872       7.91065395E-06
  0.808080792      0.300000012      0.952428401      0.934046865      0.371274590      -4.35641778E-05  0.316856831       7.85291195E-06
  0.797979772      0.300000012      0.952424109      0.934040844      0.371395737      -5.26034564E-05  0.316960514       7.70762563E-06
  0.787878811      0.300000012      0.952408552      0.934019625      0.371545762      -6.23217493E-05  0.317089528       7.86222517E-06
  0.777777791      0.300000012      0.952381313      0.933982193      0.371726394      -7.26483559E-05  0.317245543       7.81007111E-06
  0.767676771      0.300000012      0.952341974      0.933928072      0.371939123      -8.35779792E-05  0.317429751       7.67037272E-06
  0.757575750      0.300000012      0.952289879      0.933856785      0.372185707      -9.50661415E-05  0.317643642       7.91437924E-06
  0.747474730      0.300000012      0.952225208      0.933767915      0.372467309      -1.07068779E-04  0.317888290       7.85849988E-06
  0.737373710      0.300000012      0.952147663      0.933661699      0.372785002      -1.19447337E-04  0.318164587       8.08946788E-06
  0.727272749      0.300000012      0.952057362      0.933537781      0.373139530      -1.32093584E-04  0.318473190       8.16397369E-06
  0.717171729      0.300000012      0.951954424      0.933396399      0.373531222      -1.44896767E-04  0.318814427       8.07084143E-06
  0.707070708      0.300000012      0.951839149      0.933237970      0.373959869      -1.57586357E-04  0.319188029       7.88271427E-06
  0.696969688      0.300000012      0.951711893      0.933063269      0.374424726      -1.69941050E-04  0.319593400       7.78771937E-06
  0.686868668      0.300000012      0.951573670      0.932873309      0.374924183      -1.81622032E-04  0.320028991       7.59959221E-06
  0.676767647      0.300000012      0.951425314      0.932669461      0.375455797      -1.92283856E-04  0.320492804       7.34068453E-06
  0.666666687      0.300000012      0.951267898      0.932453394      0.376016051      -2.01399118E-04  0.320981711       7.23078847E-06
  0.656565666      0.300000012      0.951103389      0.932227671      0.376600236      -2.08485566E-04  0.321491539       7.27176666E-06
  0.646464646      0.300000012      0.950933456      0.931994379      0.377202302      -2.13074061E-04  0.322016984       7.17863441E-06
  0.636363626      0.300000012      0.950760603      0.931757033      0.377814800      -2.14490879E-04  0.322551638       6.96815550E-06
  0.626262605      0.300000012      0.950587511      0.931519330      0.378428608      -2.12163839E-04  0.323087454       6.76140189E-06
  0.616161644      0.300000012      0.950417221      0.931285501      0.379033417      -2.05525561E-04  0.323615491       6.52298331E-06
  0.606060624      0.300000012      0.950252831      0.931060135      0.379617602      -1.93994696E-04  0.324125439       6.67199492E-06
  0.595959604      0.300000012      0.950098813      0.930848360      0.380167812      -1.77208276E-04  0.324605793       6.10761344E-06
  0.585858583      0.300000012      0.949958265      0.930655241      0.380670637      -1.55042522E-04  0.325044811       5.71459532E-06
  0.575757563      0.300000012      0.949834764      0.930485845      0.381112337      -1.27760868E-04  0.325430423       5.70341945E-06
  0.565656543      0.300000012      0.949732006      0.930344701      0.381479830      -9.58869787E-05  0.325751305       5.47245145E-06
  0.555555582      0.300000012      0.949652612      0.930235803      0.381761700      -6.04222951E-05  0.325997442       5.44451177E-06
  0.545454562      0.300000012      0.949598789      0.930161774      0.381948739      -2.26289540E-05  0.326160908       5.24707139E-06
  0.535353541      0.300000012      0.949571609      0.930124521      0.382034391       1.61476892E-05  0.326235920       5.25079668E-06
  0.525252521      0.300000012      0.949571311      0.930124581      0.382015705       5.45877119E-05  0.326219887       5.73694706E-06
  0.515151501      0.300000012      0.949598730      0.930162072      0.381891549       9.22640465E-05  0.326112032       5.62891364E-06
  0.505050480      0.300000012      0.949653685      0.930237412      0.381662577       1.29257955E-04  0.325912714       5.60283661E-06
  0.494949490      0.300000012      0.949735641      0.930349767      0.381330162       1.65808728E-04  0.325623304       5.59724867E-06
  0.484848499      0.300000012      0.949843645      0.930497766      0.380897880       2.01612216E-04  0.325246781       5.43333590E-06
  0.474747479      0.300000012      0.949975789      0.930678964      0.380371481       2.36473687E-04  0.324788272       5.40167093E-06
  0.464646459      0.300000012      0.950130463      0.930891097      0.379757017       2.71019904E-04  0.324253052       5.37373126E-06
  0.454545468      0.300000012      0.950305998      0.931131780      0.379060179       3.05416761E-04  0.323646158       5.27501106E-06
  0.444444448      0.300000012      0.950499535      0.931397080      0.378288060       3.38171958E-04  0.322973788       5.09805977E-06
  0.434343427      0.300000012      0.950707614      0.931682408      0.377450794       3.67064844E-04  0.322244912       4.94718552E-06
  0.424242437      0.300000012      0.950926065      0.931982100      0.376561254       3.90578556E-04  0.321470737       4.87267971E-06
  0.414141417      0.300000012      0.951150954      0.932290494      0.375633806       4.07954270E-04  0.320663840       4.66592610E-06
  0.404040396      0.300000012      0.951378524      0.932602346      0.374682993       4.19171702E-04  0.319836974       4.20399010E-06
  0.393939406      0.300000012      0.951605022      0.932912588      0.373722255       4.24537982E-04  0.319001794       3.52412462E-06
  0.383838385      0.300000012      0.951827347      0.933217168      0.372764140       4.24637983E-04  0.318169177       2.92621553E-06
  0.373737365      0.300000012      0.952042758      0.933512509      0.371819258       4.20072785E-04  0.317348361       2.56858766E-06
  0.363636374      0.300000012      0.952248633      0.933795094      0.370897442       4.11455811E-04  0.316547930       2.51270831E-06
  0.353535354      0.300000012      0.952443838      0.934062779      0.370006174       3.99521086E-04  0.315774351       2.14204192E-06
  0.343434334      0.300000012      0.952626944      0.934313715      0.369151890       3.85153689E-04  0.315033257       1.64844096E-06
  0.333333343      0.300000012      0.952796936      0.934546888      0.368338972       3.68888665E-04  0.314328313       1.37835741E-06
  0.323232323      0.300000012      0.952953339      0.934761584      0.367570966       3.51191062E-04  0.313662589       1.28895044E-06
  0.313131303      0.300000012      0.953095913      0.934957266      0.366850376       3.32441792E-04  0.313038349       1.18277967E-06
  0.303030312      0.300000012      0.953224480      0.935133696      0.366178483       3.13046796E-04  0.312456608       9.90927219E-07
  0.292929292      0.300000012      0.953339517      0.935291529      0.365555972       2.93352263E-04  0.311917901       8.51228833E-07
  0.282828271      0.300000012      0.953441322      0.935431123      0.364982635       2.73588405E-04  0.311422080       6.07222319E-07
  0.272727281      0.300000012      0.953530371      0.935553193      0.364457786       2.53951730E-04  0.310968429       2.94297934E-07
  0.262626261      0.300000012      0.953607261      0.935658872      0.363980263       2.34782696E-04  0.310555995       3.59490514E-07
  0.252525240      0.300000012      0.953672886      0.935749114      0.363548189       2.16063432E-04  0.310183018       4.78699803E-07
  0.242424250      0.300000012      0.953728378      0.935825109      0.363159418       1.98119524E-04  0.309847772       2.25380063E-07
  0.232323229      0.300000012      0.953774452      0.935888529      0.362811774       1.80979958E-04  0.309548140       4.15369868E-07
  0.222222224      0.300000012      0.953812182      0.935940325      0.362502515       1.64718891E-04  0.309281856       3.05473804E-07
  0.212121218      0.300000012      0.953842640      0.935982049      0.362228721       1.49340936E-04  0.309046268       2.45869160E-07
  0.202020198      0.300000012      0.953866661      0.936015368      0.361987829       1.34929884E-04  0.308839142       5.49480319E-07
  0.191919193      0.300000012      0.953885555      0.936041415      0.361776739       1.21438745E-04  0.308657795       6.40749931E-07
  0.181818187      0.300000012      0.953900278      0.936061680      0.361592740       1.08948741E-04  0.308499843       6.59376383E-07
  0.171717167      0.300000012      0.953911960      0.936077833      0.361432970       9.74105642E-05  0.308362752       8.15838575E-07
  0.161616161      0.300000012      0.953921616      0.936090767      0.361294806       8.67703784E-05  0.308244318       4.73111868E-07
  0.151515156      0.300000012      0.953929961      0.936101735      0.361175716       7.69503022E-05  0.308142245      -4.65661287E-08
  0.141414136      0.300000012      0.953937709      0.936112463      0.361073405       6.79813675E-05  0.308054417       4.65661287E-08
  0.131313130      0.300000012      0.953945637      0.936123192      0.360985756       5.97625658E-05  0.307979167      -2.01165676E-07
  0.121212125      0.300000012      0.953954399      0.936135232      0.360910624       5.22972805E-05  0.307914525      -1.56462193E-07
  0.111111112      0.300000012      0.953964651      0.936149359      0.360846281       4.55032969E-05  0.307858974      -1.58324838E-07
  0.101010099      0.300000012      0.953976810      0.936165929      0.360790908       3.93908049E-05  0.307810962      -2.64495611E-07
   9.09090936E-02  0.300000012      0.953991354      0.936185956      0.360742837       3.38631435E-05  0.307769001      -2.30967999E-07
   8.08080807E-02  0.300000012      0.954008341      0.936209440      0.360700756       2.89529780E-05  0.307731986      -6.14672899E-08
   7.07070678E-02  0.300000012      0.954028308      0.936236799      0.360663205       2.47115604E-05  0.307698637      -1.00582838E-07
   6.06060624E-02  0.300000012      0.954051077      0.936267972      0.360629141       2.09877362E-05  0.307668149      -2.38418579E-07
   5.05050495E-02  0.300000012      0.954076707      0.936302960      0.360597372       1.78159808E-05  0.307639450      -4.78699803E-07
   4.04040404E-02  0.300000012      0.954104662      0.936341822      0.360567153       1.51237573E-05  0.307611734       9.31322575E-09
   3.03030312E-02  0.300000012      0.954135239      0.936383843      0.360537589       1.28033889E-05  0.307584554       1.86264515E-09
   2.02020202E-02  0.300000012      0.954168022      0.936428845      0.360508531       1.07914475E-05  0.307557672      -5.58793545E-09
   1.01010101E-02  0.300000012      0.954201996      0.936475694      0.360480517       8.65518905E-06  0.307531595       1.34110451E-07
   0.00000000      0.289655179      0.954229772      0.936513841      0.360455304       8.58795374E-06  0.307508260       8.19563866E-08
   0.00000000      0.279310346      0.954232454      0.936517537      0.360445648       1.15558851E-05  0.307499826       1.15483999E-07
   0.00000000      0.268965513      0.954236507      0.936523020      0.360431403       1.44559754E-05  0.307487458       7.26431608E-08
   0.00000000      0.258620679      0.954241812      0.936530232      0.360412866       1.69813411E-05  0.307471305      -3.16649675E-08
   0.00000000      0.248275861      0.954248250      0.936539114      0.360390365       1.90020219E-05  0.307451695       0.00000000    
   0.00000000      0.237931028      0.954255581      0.936549127      0.360364616       2.02934461E-05  0.307429254      -2.60770321E-08
   0.00000000      0.227586210      0.954263687      0.936560214      0.360336334       2.08534802E-05  0.307404608      -8.38190317E-08
   0.00000000      0.217241377      0.954272211      0.936572015      0.360306352       2.04203170E-05  0.307378471      -2.23517418E-08
   0.00000000      0.206896558      0.954281032      0.936584055      0.360275835       1.88549384E-05  0.307351857      -1.49011612E-07
   0.00000000      0.196551725      0.954289734      0.936595976      0.360246032       1.62124579E-05  0.307325900      -1.37835741E-07
   0.00000000      0.186206892      0.954297781      0.936607182      0.360218227       1.20614250E-05  0.307301641       5.58793545E-09
   0.00000000      0.175862074      0.954304993      0.936617196      0.360194027       6.53730876E-06  0.307280511       1.49011612E-07
   0.00000000      0.165517241      0.954311073      0.936625421      0.360175103      -6.47318586E-07  0.307264000      -4.47034836E-08
   0.00000000      0.155172408      0.954315126      0.936631024      0.360163629      -9.73798524E-06  0.307253957       2.79396772E-08
   0.00000000      0.144827589      0.954316676      0.936633229      0.360161513      -2.07538014E-05  0.307252020       1.08033419E-07
   0.00000000      0.134482756      0.954315424      0.936631322      0.360170841      -3.40205697E-05  0.307260126      -1.00582838E-07
   0.00000000      0.124137931      0.954310477      0.936624467      0.360194325      -4.95969616E-05  0.307280451      -1.49011612E-07
   0.00000000      0.113793105      0.954301119      0.936611772      0.360234499      -6.75831980E-05  0.307315320       3.72529030E-09
   0.00000000      0.103448279      0.954286754      0.936591864      0.360294223      -8.82567765E-05  0.307367235      -1.65775418E-07
   0.00000000       9.31034461E-02  0.954266548      0.936564207      0.360376626      -1.11896923E-04  0.307438821      -8.75443220E-08
   0.00000000       8.27586204E-02  0.954239547      0.936527073      0.360484987      -1.38640229E-04  0.307532996      -1.28522515E-07
   0.00000000       7.24137947E-02  0.954204857      0.936479509      0.360622793      -1.68562154E-04  0.307652801       3.35276127E-08
   0.00000000       6.20689653E-02  0.954161584      0.936420023      0.360794038      -2.01688279E-04  0.307801694       2.23517418E-08
   0.00000000       5.17241396E-02  0.954108715      0.936347425      0.361002654      -2.37841436E-04  0.307983100      -1.86264515E-09
   0.00000000       4.13793102E-02  0.954045296      0.936260343      0.361253142      -2.75843282E-04  0.308200896       4.09781933E-08
   0.00000000       3.10344826E-02  0.953970253      0.936157167      0.361550421      -3.12925229E-04  0.308459431      -5.58793545E-09
   0.00000000       2.06896551E-02  0.953882873      0.936037183      0.361899853      -3.42416199E-04  0.308763266       6.89178705E-08
   0.00000000       1.03448275E-02  0.953783333      0.935900509      0.362307340      -3.48176254E-04  0.309117317       1.43423676E-07
   1.01942774E-02  -1.06002917E-05  0.953762710      0.935872138      0.362433493      -5.54137689E-04  0.309226543       1.09896064E-07
   2.03885511E-02  -4.05888240E-05  0.953829229      0.935963571      0.362304568      -1.14754715E-03  0.309113383       1.50874257E-07
   3.05827484E-02  -8.74972393E-05  0.953935325      0.936109185      0.362047046      -1.69238355E-03  0.308888644       0.00000000    
   4.07768898E-02  -1.49138228E-04  0.954064608      0.936286986      0.361702859      -2.17240816E-03  0.308588803       2.25380063E-07
   5.09709269E-02  -2.23550553E-04  0.954209864      0.936486781      0.361295074      -2.58930516E-03  0.308233798       4.15369868E-07
   6.11648858E-02  -3.08956922E-04  0.954367161      0.936702847      0.360837877      -2.94680474E-03  0.307836026       3.87430191E-07
   7.13587478E-02  -4.03728453E-04  0.954533339      0.936931670      0.360340655      -3.24861472E-03  0.307403266       8.81031156E-07
   8.15525427E-02  -5.06357115E-04  0.954706728      0.937170148      0.359809637      -3.49832419E-03  0.306941122       1.09151006E-06
   9.17462707E-02  -6.15430705E-04  0.954885781      0.937416673      0.359249502      -3.69871059E-03  0.306453466       1.54972076E-06
  0.101939946      -7.29613879E-04  0.955069840      0.937669694      0.358663201      -3.85223189E-03  0.305942953       1.62795186E-06
  0.112133577      -8.47629446E-04  0.955257952      0.937928319      0.358052969      -3.96065461E-03  0.305411488       1.63912773E-06
  0.122327171      -9.68243345E-04  0.955449522      0.938191354      0.357420266      -4.02545230E-03  0.304860264       1.31689012E-06
  0.132520750      -1.09024998E-03  0.955643833      0.938458681      0.356765956      -4.04743059E-03  0.304290086       1.57020986E-06
  0.142714337      -1.21245917E-03  0.955840409      0.938729346      0.356090337      -4.02717385E-03  0.303701162       1.95205212E-06
  0.152907923      -1.33368257E-03  0.956039369      0.939003110      0.355393052      -3.96474870E-03  0.303093314       2.13831663E-06
  0.163101539      -1.45272142E-03  0.956240714      0.939280450      0.354673296      -3.85976047E-03  0.302465737       2.69897282E-06
  0.173295200      -1.56835280E-03  0.956444442      0.939560711      0.353929818      -3.71133280E-03  0.301817536       2.80328095E-06
  0.183488905      -1.67931605E-03  0.956650913      0.939844728      0.353160560      -3.51815904E-03  0.301146924       2.78279185E-06
  0.193682685      -1.78429752E-03  0.956860244      0.940132678      0.352363139      -3.27844056E-03  0.300451875       2.80886889E-06
  0.203876525      -1.88191328E-03  0.957072735      0.940425456      0.351534277      -2.98969005E-03  0.299729615       3.36021185E-06
  0.214070454      -1.97069068E-03  0.957289398      0.940723956      0.350669891      -2.64879013E-03  0.298976719       3.79420817E-06
  0.224264458      -2.04904471E-03  0.957511246      0.941029489      0.349765122      -2.25193263E-03  0.298189133       4.15556133E-06
  0.234458551      -2.11525219E-03  0.957739413      0.941343725      0.348813742      -1.79428980E-03  0.297361583       4.41446900E-06
  0.244652733      -2.16741930E-03  0.957975388      0.941668928      0.347808719      -1.26999849E-03  0.296488196       4.97139990E-06
  0.254846990      -2.20344099E-03  0.958221197      0.942007482      0.346741259      -6.71844056E-04  0.295561641       5.24334610E-06
  0.265041292      -2.22095218E-03  0.958478928      0.942362547      0.345600784       9.11581810E-06  0.294573039       5.58421016E-06
  0.275235593      -2.21726228E-03  0.958751261      0.942738116      0.344374478       7.84077682E-04  0.293511778       6.34603202E-06
  0.285429865      -2.18927371E-03  0.959041595      0.943138659      0.343046993       1.66678207E-03  0.292365193       7.17118382E-06
  0.295624018      -2.13337177E-03  0.959354103      0.943569779      0.341599584       2.67491466E-03  0.291117996       8.06152821E-06
  0.305817962      -2.04527588E-03  0.959693909      0.944038630      0.340009034       3.83076444E-03  0.289751381       9.06176865E-06
  0.316011488      -1.91983546E-03  0.960066736      0.944553316      0.338246793       5.16389869E-03  0.288242340       1.03116035E-05
  0.326204360      -1.75073801E-03  0.960480154      0.945123971      0.336276591       6.71334984E-03  0.286562234       1.15334988E-05
  0.336396307      -1.53008103E-03  0.960942984      0.945763826      0.334052652       8.53236299E-03  0.284675449       1.38580799E-05
  0.346586645      -1.24772848E-03  0.961466730      0.946488142      0.331515580       1.06961941E-02  0.282537073       1.66464597E-05
  0.356774658      -8.90274358E-04  0.962065637      0.947317064      0.328587592       1.33147938E-02  0.280090302       2.01724470E-05
  0.366958946      -4.39326104E-04  0.962758482      0.948276937      0.325165749       1.65771972E-02  0.277265251       2.50991434E-05
  0.377137065       1.33766516E-04  0.963586628      0.949427187      0.321159840       2.13311724E-02  0.274048626       3.36114317E-05
  0.387299746       9.32033930E-04  0.964420736      0.950589478      0.317230791       2.85137631E-02  0.271141112       4.56776470E-05
  0.397434235       2.03104783E-03  0.964990914      0.951392293      0.314125717       3.77065204E-02  0.269294679       6.24340028E-05
  0.407523632       3.48527054E-03  0.965190947      0.951692343      0.312149376       4.87935990E-02  0.268905014       8.76262784E-05
  0.417543113       5.36030158E-03  0.964901268      0.951332986      0.311736435       6.22542650E-02  0.270576745       1.30195171E-04
  0.427456856       7.73026003E-03  0.963841498      0.949943841      0.313856333       7.87561610E-02  0.275473893       2.07386911E-04
  0.437217921       1.06651187E-02  0.961484969      0.946831524      0.320355386       9.89067182E-02  0.285544366       3.52777541E-04
  0.446780443       1.41935814E-02  0.956887245      0.940751851      0.334493101      0.122393347      0.303599507       6.21698797E-04
  0.456144422       1.82216074E-02  0.948607504      0.929785848      0.361074895      0.145598039      0.332353264       1.06319599E-03
  0.465438336       2.24102195E-02  0.935453713      0.912329018      0.403460473      0.158146128      0.370858520       1.65844709E-03
  0.474928796       2.61229333E-02  0.919100463      0.890641153      0.454801977      0.145227730      0.409894854       2.29009241E-03
  0.484786808       2.86871437E-02  0.905232966      0.872392416      0.496165097      0.102740906      0.436217576       2.87221372E-03
  0.494905144       2.98680626E-02  0.898448467      0.863795221      0.513872862       4.67807390E-02  0.444759309       3.50073725E-03
  0.505094886       2.98680626E-02  0.897575557      0.863270223      0.510878980      -7.80293811E-03  0.440318376       4.25366312E-03
  0.515213192       2.86871418E-02  0.899233520      0.866509557      0.491998374      -6.27201349E-02  0.427021533       5.41537628E-03
  0.525071204       2.61229314E-02  0.903422177      0.873582721      0.456716835     -0.114436567      0.404667646       7.03895092E-03
  0.534561634       2.24102195E-02  0.911790609      0.886284769      0.410956234     -0.145710185      0.373771995       8.56590271E-03
  0.543855608       1.82216056E-02  0.923390388      0.903006375      0.366586149     -0.147241190      0.337626517       9.55879316E-03
  0.553219557       1.41935805E-02  0.934480131      0.918712199      0.331873119     -0.128200620      0.303253323       1.00885089E-02
  0.562782109       1.06651178E-02  0.942365468      0.929820299      0.308781385     -0.103649743      0.277128875       1.03430469E-02
  0.572543144       7.73025956E-03  0.947053969      0.936409771      0.295197278      -8.17106217E-02  0.260335624       1.04567427E-02
  0.582456887       5.36030112E-03  0.949590385      0.939973295      0.288020432      -6.40469715E-02  0.250639886       1.05105918E-02
  0.592476368       3.48527008E-03  0.950850189      0.941740751      0.284884006      -5.00544757E-02  0.245638579       1.05329994E-02