 title = "grid"
                                   variables = "x","y","rho","P","u","v","M","S"
 zone n=        3000  e =        5742  et=quadrilateral, f=fepoint
   0.00000000       0.00000000      0.953727186      0.935823381      0.362403303      -3.07168491E-04  0.309202790       1.15483999E-07
   1.00000000       0.00000000      0.944300234      0.932298243      0.324195355       5.86711511E-04  0.275753528       1.01330746E-02
   1.00000000      0.300000012      0.951305628      0.932506800      0.369936079       6.23619053E-06  0.315788805       9.00961459E-06
   0.00000000      0.300000012      0.954538941      0.936938703      0.359216422       1.85095416E-06  0.306431502       1.75088644E-07
   1.00000000       1.03448275E-02  0.945857465      0.932359934      0.331034988       8.80205072E-04  0.281794459       7.89244287E-03
   1.00000000       2.06896551E-02  0.947637796      0.932401478      0.339456469       1.13824930E-03  0.289229274       5.30426763E-03
   1.00000000       3.10344826E-02  0.948818982      0.932430685      0.345894873       1.28598604E-03  0.294894397       3.59170511E-03
   1.00000000       4.13793102E-02  0.949618518      0.932451785      0.351129949       1.35998207E-03  0.299480468       2.43509002E-03
   1.00000000       5.17241396E-02  0.950162590      0.932466805      0.355416864       1.38309691E-03  0.303221196       1.64930709E-03
   1.00000000       6.20689653E-02  0.950531781      0.932478189      0.358892381       1.37049705E-03  0.306243867       1.11765042E-03
   1.00000000       7.24137947E-02  0.950781345      0.932486653      0.361681700       1.33283052E-03  0.308662951       7.59180635E-04
   1.00000000       8.27586204E-02  0.950949013      0.932492971      0.363882214       1.27755338E-03  0.310567051       5.19067049E-04
   1.00000000       9.31034461E-02  0.951061904      0.932497799      0.365584552       1.21028803E-03  0.312037438       3.58108431E-04
   1.00000000      0.103448279      0.951137960      0.932501554      0.366879761       1.13540806E-03  0.313154608       2.50196084E-04
   1.00000000      0.113793105      0.951189220      0.932504296      0.367848307       1.05602655E-03  0.313989103       1.77690759E-04
   1.00000000      0.124137931      0.951224148      0.932506323      0.368557930       9.74610681E-04  0.314600050       1.28384680E-04
   1.00000000      0.134482756      0.951248109      0.932507753      0.369067907       8.92970769E-04  0.315038949       9.46596265E-05
   1.00000000      0.144827589      0.951264858      0.932508767      0.369426817       8.12598853E-04  0.315347731       7.11567700E-05
   1.00000000      0.155172408      0.951276779      0.932509542      0.369672894       7.34407280E-04  0.315559506       5.43985516E-05
   1.00000000      0.165517241      0.951285362      0.932510018      0.369836539       6.59243611E-04  0.315700442       4.22708690E-05
   1.00000000      0.175862074      0.951291561      0.932510197      0.369940698       5.87519375E-04  0.315790236       3.33432108E-05
   1.00000000      0.186206892      0.951296091      0.932510436      0.370002806       5.19559544E-04  0.315843850       2.69412994E-05
   1.00000000      0.196551725      0.951299489      0.932510436      0.370035321       4.55483125E-04  0.315872103       2.19196081E-05
   1.00000000      0.206896558      0.951301992      0.932510436      0.370047927       3.95192328E-04  0.315883219       1.82576478E-05
   1.00000000      0.217241377      0.951303482      0.932510316      0.370047182       3.38589773E-04  0.315882802       1.59256160E-05
   1.00000000      0.227586210      0.951304913      0.932510197      0.370037615       2.85462185E-04  0.315874875       1.36811286E-05
   1.00000000      0.237931028      0.951305866      0.932509959      0.370022595       2.35525527E-04  0.315862238       1.20811164E-05
   1.00000000      0.248275861      0.951306522      0.932509661      0.370004922       1.88503560E-04  0.315847248       1.07605010E-05
   1.00000000      0.258620679      0.951306999      0.932509363      0.369986176       1.43998026E-04  0.315831363       9.78074968E-06
   1.00000000      0.268965513      0.951306880      0.932508886      0.369967163       1.01868995E-04  0.315815181       9.38959420E-06
   1.00000000      0.279310346      0.951306522      0.932508409      0.369949102       6.20155624E-05  0.315799773       9.42312181E-06
   1.00000000      0.289655179      0.951305926      0.932507336      0.369934112       2.48452616E-05  0.315787077       9.11764801E-06
  0.989898980      0.300000012      0.951306045      0.932507277      0.369920403       1.36122717E-05  0.315775394       8.88854265E-06
  0.979797959      0.300000012      0.951304853      0.932505667      0.369895369       1.58862658E-05  0.315754086       8.89971852E-06
  0.969696999      0.300000012      0.951298714      0.932496965      0.369874865       1.74306224E-05  0.315737039       8.62963498E-06
  0.959595978      0.300000012      0.951287270      0.932480872      0.369860291       1.84424116E-05  0.315725446       8.21053982E-06
  0.949494958      0.300000012      0.951269925      0.932456911      0.369852871       1.89915427E-05  0.315720260       8.01868737E-06
  0.939393938      0.300000012      0.951246798      0.932425082      0.369853795       1.90957944E-05  0.315722615       7.96653330E-06
  0.929292917      0.300000012      0.951217353      0.932384729      0.369863927       1.87866317E-05  0.315733224       7.99633563E-06
  0.919191897      0.300000012      0.951181471      0.932335973      0.369884253       1.79916660E-05  0.315752864       8.56816769E-06
  0.909090936      0.300000012      0.951139510      0.932278275      0.369915545       1.67156977E-05  0.315782368       8.37817788E-06
  0.898989916      0.300000012      0.951091111      0.932211816      0.369958848       1.48876661E-05  0.315822572       8.37258995E-06
  0.888888896      0.300000012      0.951035976      0.932136357      0.370015264       1.25676788E-05  0.315874368       8.57189298E-06
  0.878787875      0.300000012      0.950974524      0.932051957      0.370085686       9.61612841E-06  0.315938562       8.51973891E-06
  0.868686855      0.300000012      0.950906575      0.931958497      0.370171398       6.00413159E-06  0.316016316       8.27386975E-06
  0.858585835      0.300000012      0.950831890      0.931855977      0.370273441       1.69701889E-06  0.316108376       8.17701221E-06
  0.848484874      0.300000012      0.950750589      0.931744337      0.370392919      -3.40316274E-06  0.316215813       8.07456672E-06
  0.838383853      0.300000012      0.950662553      0.931623518      0.370531261      -9.20827642E-06  0.316339791       8.08946788E-06
  0.828282833      0.300000012      0.950567961      0.931493700      0.370689720      -1.58741659E-05  0.316481382       7.97584653E-06
  0.818181813      0.300000012      0.950466633      0.931354761      0.370869786      -2.33923856E-05  0.316641867       8.11368227E-06
  0.808080792      0.300000012      0.950358689      0.931206763      0.371072829      -3.17582599E-05  0.316822380       8.15279782E-06
  0.797979772      0.300000012      0.950244248      0.931049466      0.371300161      -4.10271386E-05  0.317024171       7.84918666E-06
  0.787878811      0.300000012      0.950122893      0.930883050      0.371553421      -5.11279941E-05  0.317248493       7.89202750E-06
  0.777777791      0.300000012      0.949994743      0.930707574      0.371833742      -6.20801438E-05  0.317496359       8.17887485E-06
  0.767676771      0.300000012      0.949859917      0.930522740      0.372142464      -7.37977971E-05  0.317768961       8.32602382E-06
  0.757575750      0.300000012      0.949718475      0.930328906      0.372480899      -8.62875677E-05  0.318067402       8.43033195E-06
  0.747474730      0.300000012      0.949570477      0.930125952      0.372849971      -9.94046932E-05  0.318392515       8.46758485E-06
  0.737373710      0.300000012      0.949416161      0.929914057      0.373250335      -1.13006463E-04  0.318744808       8.19377601E-06
  0.727272749      0.300000012      0.949255288      0.929693520      0.373682499      -1.26978281E-04  0.319124669       8.24034214E-06
  0.717171729      0.300000012      0.949088395      0.929464459      0.374146551      -1.41205775E-04  0.319532216       7.96839595E-06
  0.707070708      0.300000012      0.948915780      0.929227471      0.374642193      -1.55324073E-04  0.319967240       7.63125718E-06
  0.696969688      0.300000012      0.948737860      0.928983510      0.375168324      -1.69145453E-04  0.320428610       7.59027898E-06
  0.686868668      0.300000012      0.948555470      0.928733110      0.375723332      -1.82397896E-04  0.320915073       7.18608499E-06
  0.676767647      0.300000012      0.948369265      0.928477824      0.376304746      -1.94625914E-04  0.321424305       7.11530447E-06
  0.666666687      0.300000012      0.948180497      0.928218901      0.376909167      -2.05406614E-04  0.321953446       6.84708357E-06
  0.656565666      0.300000012      0.947990477      0.927958548      0.377532154      -2.14312153E-04  0.322498500       6.96256757E-06
  0.646464646      0.300000012      0.947801173      0.927699029      0.378167927      -2.20776084E-04  0.323054522       6.82286918E-06
  0.636363626      0.300000012      0.947614610      0.927443147      0.378809571      -2.24295916E-04  0.323615432       6.58817589E-06
  0.626262605      0.300000012      0.947432935      0.927194238      0.379448682      -2.24246338E-04  0.324173838       6.60866499E-06
  0.616161644      0.300000012      0.947259247      0.926956117      0.380075365      -2.20048169E-04  0.324721187       6.42985106E-06
  0.606060624      0.300000012      0.947096646      0.926733315      0.380678505      -2.10999744E-04  0.325247675       6.38887286E-06
  0.595959604      0.300000012      0.946948349      0.926530123      0.381245464      -1.96722918E-04  0.325742245       6.26035035E-06
  0.585858583      0.300000012      0.946817696      0.926351190      0.381763279      -1.77066089E-04  0.326193690       6.33299351E-06
  0.575757563      0.300000012      0.946708262      0.926201403      0.382218301      -1.52255816E-04  0.326590002       6.44847751E-06
  0.565656543      0.300000012      0.946623266      0.926084578      0.382597864      -1.22720143E-04  0.326920241       5.98654151E-06
  0.555555582      0.300000012      0.946564853      0.926004469      0.382890463      -8.92407043E-05  0.327174336       5.87105751E-06
  0.545454562      0.300000012      0.946534932      0.925963342      0.383086622      -5.30606558E-05  0.327344000       5.72390854E-06
  0.535353541      0.300000012      0.946534574      0.925962567      0.383179456      -1.55707330E-05  0.327423394       5.45941293E-06
  0.525252521      0.300000012      0.946563900      0.926002741      0.383165330       2.19857593E-05  0.327409327       5.42402267E-06
  0.515151501      0.300000012      0.946622849      0.926083803      0.383043140       5.87937757E-05  0.327300787       5.80586493E-06
  0.505050480      0.300000012      0.946711719      0.926205397      0.382813126       9.47878507E-05  0.327098131       5.66244125E-06
  0.494949490      0.300000012      0.946829557      0.926366866      0.382477492       1.30111497E-04  0.326803178       5.70528209E-06
  0.484848499      0.300000012      0.946974993      0.926565945      0.382039726       1.64423109E-04  0.326419175       5.55068254E-06
  0.474747479      0.300000012      0.947146177      0.926800370      0.381506175       1.97508605E-04  0.325951546       5.50597906E-06
  0.464646459      0.300000012      0.947341263      0.927067697      0.380883425       2.30000980E-04  0.325406075       5.52088022E-06
  0.454545468      0.300000012      0.947558403      0.927365363      0.380177557       2.62016256E-04  0.324788094       5.69224358E-06
  0.444444448      0.300000012      0.947794914      0.927689195      0.379395932       2.92127108E-04  0.324104279       5.43519855E-06
  0.434343427      0.300000012      0.948047400      0.928034902      0.378548890       3.18582170E-04  0.323363513       5.16697764E-06
  0.424242437      0.300000012      0.948311806      0.928397119      0.377649039       3.39857681E-04  0.322576880       4.98071313E-06
  0.414141417      0.300000012      0.948584318      0.928770185      0.376710236       3.55302618E-04  0.321756572       4.51132655E-06
  0.404040396      0.300000012      0.948860943      0.929149389      0.375746459       3.64836509E-04  0.320914686       4.51691449E-06
  0.393939406      0.300000012      0.949138820      0.929529965      0.374770999       3.68763373E-04  0.320062906       4.06242907E-06
  0.383838385      0.300000012      0.949414909      0.929907918      0.373795897       3.67557543E-04  0.319211692       3.41981649E-06
  0.373737365      0.300000012      0.949686348      0.930280030      0.372831523       3.61902494E-04  0.318369955       3.29874456E-06
  0.363636374      0.300000012      0.949951470      0.930643380      0.371886939       3.52494302E-04  0.317545623       2.97836959E-06
  0.353535354      0.300000012      0.950208664      0.930995882      0.370969564       3.40053521E-04  0.316745222       2.68034637E-06
  0.343434334      0.300000012      0.950456917      0.931336343      0.370085150       3.25341593E-04  0.315973550       2.65613198E-06
  0.333333343      0.300000012      0.950695515      0.931663573      0.369237959       3.08965653E-04  0.315234423       2.47359276E-06
  0.323232323      0.300000012      0.950924158      0.931976914      0.368430972       2.91371456E-04  0.314530402       2.15880573E-06
  0.313131303      0.300000012      0.951142371      0.932276189      0.367666394       2.72961828E-04  0.313863277       1.95018947E-06
  0.303030312      0.300000012      0.951350272      0.932561457      0.366945267       2.54121900E-04  0.313234001       1.90734863E-06
  0.292929292      0.300000012      0.951548278      0.932832778      0.366268039       2.35249536E-04  0.312642932       1.48639083E-06
  0.282828271      0.300000012      0.951736450      0.933090925      0.365634561       2.16531189E-04  0.312089860       1.37276947E-06
  0.272727281      0.300000012      0.951915443      0.933336198      0.365043998       1.98114460E-04  0.311574131       9.29459929E-07
  0.262626261      0.300000012      0.952085555      0.933569252      0.364495188       1.80285497E-04  0.311094642       3.81842256E-07
  0.252525240      0.300000012      0.952247322      0.933791280      0.363986760       1.63097866E-04  0.310650170       3.16649675E-07
  0.242424250      0.300000012      0.952401221      0.934002519      0.363517016       1.46699458E-04  0.310239226       2.94297934E-07
  0.232323229      0.300000012      0.952548027      0.934203863      0.363083929       1.31167166E-04  0.309860080       1.67638063E-08
  0.222222224      0.300000012      0.952688217      0.934396029      0.362685680       1.16577932E-04  0.309511155      -3.22237611E-07
  0.212121218      0.300000012      0.952822208      0.934579790      0.362320095       1.02974183E-04  0.309190542      -5.38304448E-07
  0.202020198      0.300000012      0.952950418      0.934755743      0.361985117       9.03796390E-05  0.308896393      -6.35161996E-07
  0.191919193      0.300000012      0.953073025      0.934924543      0.361678660       7.87447643E-05  0.308626831      -2.10478902E-07
  0.181818187      0.300000012      0.953190863      0.935086548      0.361398458       6.82320460E-05  0.308380067      -2.42143869E-08
  0.171717167      0.300000012      0.953304291      0.935242414      0.361142606       5.86692040E-05  0.308154404       8.00937414E-08
  0.161616161      0.300000012      0.953413427      0.935392320      0.360909134       5.01890572E-05  0.307948142       1.08033419E-07
  0.151515156      0.300000012      0.953518391      0.935536325      0.360696226       4.25992548E-05  0.307759732      -1.47148967E-07
  0.141414136      0.300000012      0.953619301      0.935674608      0.360502154       3.59591322E-05  0.307587713      -5.01051545E-07
  0.131313130      0.300000012      0.953716040      0.935807645      0.360325366       3.01091659E-05  0.307430565      -3.03611159E-07
  0.121212125      0.300000012      0.953808606      0.935934961      0.360164523       2.51516867E-05  0.307287335      -1.22934580E-07
  0.111111112      0.300000012      0.953896999      0.936056435      0.360018551       2.08121055E-05  0.307157129      -7.82310963E-08
  0.101010099      0.300000012      0.953981161      0.936172128      0.359886467       1.71067950E-05  0.307039022      -2.04890966E-08
   9.09090936E-02  0.300000012      0.954061091      0.936281800      0.359767497       1.40304783E-05  0.306932390      -1.95577741E-07
   8.08080807E-02  0.300000012      0.954136312      0.936385274      0.359660983       1.13649085E-05  0.306836665      -1.30385160E-08
   7.07070678E-02  0.300000012      0.954206765      0.936482072      0.359566510       9.12831820E-06  0.306751549      -3.91155481E-08
   6.06060624E-02  0.300000012      0.954272330      0.936571896      0.359483600       7.26116650E-06  0.306676626      -3.14787030E-07
   5.05050495E-02  0.300000012      0.954332352      0.936654627      0.359411925       5.76144521E-06  0.306611568      -1.86264515E-08
   4.04040404E-02  0.300000012      0.954386950      0.936729670      0.359351307       4.58707564E-06  0.306556344      -1.11758709E-08
   3.03030312E-02  0.300000012      0.954435825      0.936796963      0.359301388       3.70093085E-06  0.306510627       7.45058060E-08
   2.02020202E-02  0.300000012      0.954478800      0.936856031      0.359261692       3.10298401E-06  0.306474000       1.02445483E-07
   1.01010101E-02  0.300000012      0.954515755      0.936906755      0.359232128       2.71455906E-06  0.306446403       4.09781933E-08
   0.00000000      0.289655179      0.954541028      0.936941445      0.359214455      -1.07606786E-06  0.306429714       2.23517418E-08
   0.00000000      0.279310346      0.954541147      0.936941564      0.359215081      -3.92397487E-06  0.306430221      -2.79396772E-08
   0.00000000      0.268965513      0.954540431      0.936940491      0.359218776      -6.43281783E-06  0.306433439      -8.00937414E-08
   0.00000000      0.258620679      0.954539001      0.936938524      0.359225392      -8.92423304E-06  0.306439191      -9.12696123E-08
   0.00000000      0.248275861      0.954536855      0.936935544      0.359234691      -1.14628847E-05  0.306447268      -1.75088644E-07
   0.00000000      0.237931028      0.954534054      0.936931729      0.359246880      -1.43807920E-05  0.306457818      -8.00937414E-08
   0.00000000      0.227586210      0.954530299      0.936926782      0.359262079      -1.76444173E-05  0.306471020       7.82310963E-08
   0.00000000      0.217241377      0.954525888      0.936920583      0.359280854      -2.13958047E-05  0.306487352       3.72529030E-09
   0.00000000      0.206896558      0.954520464      0.936913073      0.359303623      -2.57269385E-05  0.306507111      -1.06170774E-07
   0.00000000      0.196551725      0.954513788      0.936903894      0.359330922      -3.06607180E-05  0.306530833      -9.49949026E-08
   0.00000000      0.186206892      0.954505742      0.936892927      0.359363586      -3.65078522E-05  0.306559205      -5.58793545E-09
   0.00000000      0.175862074      0.954496145      0.936879754      0.359402388      -4.32875058E-05  0.306592882       5.58793545E-09
   0.00000000      0.165517241      0.954484642      0.936863959      0.359448433      -5.10688005E-05  0.306632906       3.53902578E-08
   0.00000000      0.155172408      0.954470932      0.936845124      0.359502941      -6.01208048E-05  0.306680292       0.00000000    
   0.00000000      0.144827589      0.954454839      0.936823130      0.359566987      -7.05375351E-05  0.306735963       1.22934580E-07
   0.00000000      0.134482756      0.954435825      0.936796904      0.359642327      -8.24922099E-05  0.306801468       1.67638063E-08
   0.00000000      0.124137931      0.954413593      0.936766386      0.359730273      -9.61323822E-05  0.306877941       1.21071935E-07
   0.00000000      0.113793105      0.954387605      0.936730504      0.359832853      -1.11738744E-04  0.306967109      -1.13621354E-07
   0.00000000      0.103448279      0.954357088      0.936688542      0.359952390      -1.29487147E-04  0.307071060      -1.34110451E-07
   0.00000000       9.31034461E-02  0.954321682      0.936640084      0.360090971      -1.49683896E-04  0.307191551       7.07805157E-08
   0.00000000       8.27586204E-02  0.954280674      0.936583817      0.360251278      -1.72454631E-04  0.307330936       1.24797225E-07
   0.00000000       7.24137947E-02  0.954233587      0.936518967      0.360436231      -1.97911955E-04  0.307491809       1.67638063E-08
   0.00000000       6.20689653E-02  0.954178989      0.936444104      0.360649049      -2.26309057E-04  0.307676882       1.93715096E-07
   0.00000000       5.17241396E-02  0.954116583      0.936358392      0.360893428      -2.57204229E-04  0.307889402       1.58324838E-07
   0.00000000       4.13793102E-02  0.954045355      0.936260343      0.361173213      -2.89684278E-04  0.308132768      -4.47034836E-08
   0.00000000       3.10344826E-02  0.953964233      0.936148942      0.361493021      -3.20892403E-04  0.308410853       2.04890966E-08
   0.00000000       2.06896551E-02  0.953872681      0.936023176      0.361857980      -3.43862077E-04  0.308728129       2.04890966E-08
   0.00000000       1.03448275E-02  0.953771114      0.935883582      0.362273723      -3.42283893E-04  0.309089422      -1.86264515E-08
   1.01942774E-02  -1.06002917E-05  0.953727186      0.935823202      0.362419575      -5.45813178E-04  0.309216976      -6.70552254E-08
   2.03885511E-02  -4.05888240E-05  0.953726530      0.935822427      0.362343818      -1.14113418E-03  0.309153527       9.49949026E-08
   3.05827484E-02  -8.74972393E-05  0.953767776      0.935879290      0.362138867      -1.68900541E-03  0.308977783       2.83122063E-07
   4.07768898E-02  -1.49138228E-04  0.953834713      0.935971379      0.361847162      -2.17269338E-03  0.308726758       4.69386578E-07
   5.09709269E-02  -2.23550553E-04  0.953919888      0.936088681      0.361492783      -2.59365328E-03  0.308421224       7.69272447E-07
   6.11648858E-02  -3.08956922E-04  0.954019368      0.936225355      0.361090004      -2.95561110E-03  0.308073550       7.89761543E-07
   7.13587478E-02  -4.03728453E-04  0.954130352      0.936377823      0.360648006      -3.26219527E-03  0.307691574       7.02217221E-07
   8.15525427E-02  -5.06357115E-04  0.954251111      0.936543882      0.360173315      -3.51694319E-03  0.307280868       8.54954123E-07
   9.17462707E-02  -6.15430705E-04  0.954380512      0.936721861      0.359670073      -3.72248562E-03  0.306844980       1.11013651E-06
  0.101939946      -7.29613879E-04  0.954518020      0.936910748      0.359141022      -3.88122257E-03  0.306386262       9.72300768E-07
  0.112133577      -8.47629446E-04  0.954663038      0.937110007      0.358587891      -3.99487792E-03  0.305906236       1.00955367E-06
  0.122327171      -9.68243345E-04  0.954815090      0.937319100      0.358011514      -4.06489242E-03  0.305405527       1.11013651E-06
  0.132520750      -1.09024998E-03  0.954973996      0.937537968      0.357412070      -4.09197295E-03  0.304884255       1.64657831E-06
  0.142714337      -1.21245917E-03  0.955140591      0.937766850      0.356788695      -4.07665269E-03  0.304341823       1.49384141E-06
  0.152907923      -1.33368257E-03  0.955314338      0.938005984      0.356140554      -4.01888415E-03  0.303777367       1.83470547E-06
  0.163101539      -1.45272142E-03  0.955495596      0.938255250      0.355466068      -3.91823752E-03  0.303189635       1.94832683E-06
  0.173295200      -1.56835280E-03  0.955684960      0.938515604      0.354763031      -3.77375260E-03  0.302576721       1.95018947E-06
  0.183488905      -1.67931605E-03  0.955882370      0.938787222      0.354028791      -3.58415674E-03  0.301936358       2.18302011E-06
  0.193682685      -1.78429752E-03  0.956088364      0.939070821      0.353260189      -3.34759429E-03  0.301265925       2.52202153E-06
  0.203876525      -1.88191328E-03  0.956303835      0.939367592      0.352453530      -3.06151086E-03  0.300562233       3.05660069E-06
  0.214070454      -1.97069068E-03  0.956529379      0.939678431      0.351604283      -2.72290362E-03  0.299821466       3.74391675E-06
  0.224264458      -2.04904471E-03  0.956766188      0.940004408      0.350707322      -2.32782238E-03  0.299039334       4.04939055E-06
  0.234458551      -2.11525219E-03  0.957015276      0.940347433      0.349756509      -1.87152473E-03  0.298210740       4.44427133E-06
  0.244652733      -2.16741930E-03  0.957277775      0.940708756      0.348744810      -1.34815660E-03  0.297329754       4.65102494E-06
  0.254846990      -2.20344099E-03  0.957555354      0.941091001      0.347663581      -7.50445353E-04  0.296389163       5.00865281E-06
  0.265041292      -2.22095218E-03  0.957849979      0.941496670      0.346502423      -6.94822447E-05  0.295380354       5.31226397E-06
  0.275235593      -2.21726228E-03  0.958163738      0.941928983      0.345249206       7.05891813E-04  0.294293284       5.81145287E-06
  0.285429865      -2.18927371E-03  0.958499253      0.942391694      0.343889147       1.58944423E-03  0.293115824       6.79306686E-06
  0.295624018      -2.13337177E-03  0.958860576      0.942889988      0.342403859       2.59882119E-03  0.291832983       7.76350498E-06
  0.305817962      -2.04527588E-03  0.959251881      0.943429589      0.340770990       3.75638111E-03  0.290426701       8.70041549E-06
  0.316011488      -1.91983546E-03  0.959678411      0.944017828      0.338962436       5.09161828E-03  0.288874567       9.64850187E-06
  0.326204360      -1.75073801E-03  0.960146606      0.944664121      0.336942792       6.64361240E-03  0.287148535       1.11404806E-05
  0.336396307      -1.53008103E-03  0.960664928      0.945380032      0.334666848       8.46563186E-03  0.285213649       1.31614506E-05
  0.346586645      -1.24772848E-03  0.961243629      0.946180105      0.332075983       1.06329285E-02  0.283025652       1.59628689E-05
  0.356774658      -8.90274358E-04  0.961896360      0.947083116      0.329092741       1.32554229E-02  0.280528128       1.95577741E-05
  0.366958946      -4.39326104E-04  0.962641001      0.948114634      0.325614899       1.65221132E-02  0.277651727       2.47731805E-05
  0.377137065       1.33766516E-04  0.963518441      0.949332833      0.321552992       2.12815143E-02  0.274383783       3.33040953E-05
  0.387299746       9.32033930E-04  0.964397907      0.950557470      0.317569941       2.84708310E-02  0.271426737       4.51803207E-05
  0.397434235       2.03104783E-03  0.965008318      0.951415956      0.314414859       3.76702882E-02  0.269534439       6.20484352E-05
  0.407523632       3.48527054E-03  0.965242803      0.951764226      0.312394112       4.87632751E-02  0.269103885       8.78814608E-05
  0.417543113       5.36030158E-03  0.964981735      0.951445043      0.311943650       6.22290038E-02  0.270740867       1.31154433E-04
  0.427456856       7.73026003E-03  0.963945210      0.950088561      0.314034045       7.87360370E-02  0.275610328       2.09104270E-04
  0.437217921       1.06651187E-02  0.961606085      0.947000921      0.320512772       9.88918766E-02  0.285661161       3.55362892E-04
  0.446780443       1.41935814E-02  0.957017720      0.940935433      0.334643632      0.122385502      0.303708792       6.25975430E-04
  0.456144422       1.82216074E-02  0.948737562      0.929970324      0.361237764      0.145599663      0.332472533       1.06965378E-03
  0.465438336       2.24102195E-02  0.935570061      0.912496686      0.403663874      0.158158734      0.371013522       1.66811049E-03
  0.474928796       2.61229333E-02  0.919190586      0.890775084      0.455077946      0.145245448      0.410114527       2.30322778E-03
  0.484786808       2.86871437E-02  0.905296326      0.872490525      0.496529549      0.102744557      0.436516255       2.88662314E-03
  0.494905144       2.98680626E-02  0.898505032      0.863883853      0.514306962       4.67497483E-02  0.445120692       3.51523980E-03
  0.505094886       2.98680626E-02  0.897656441      0.863390803      0.511332095      -7.87402131E-03  0.440698773       4.26720083E-03
  0.515213192       2.86871418E-02  0.899366438      0.866699159      0.492416203      -6.28309995E-02  0.427375287       5.42727113E-03
  0.525071204       2.61229314E-02  0.903630733      0.873874068      0.457050472     -0.114572577      0.404953420       7.04924390E-03
  0.534561634       2.24102195E-02  0.912090123      0.886701167      0.411176890     -0.145838231      0.373960555       8.57579336E-03
  0.543855608       1.82216056E-02  0.923781812      0.903552294      0.366692573     -0.147331342      0.337709099       9.56985168E-03
  0.553219557       1.41935805E-02  0.934951544      0.919374526      0.331882030     -0.128247544      0.303241998       1.01031363E-02
  0.562782109       1.06651178E-02  0.942901790      0.930579424      0.308716327     -0.103668831      0.277047336       1.03625562E-02
  0.572543144       7.73025956E-03  0.947642863      0.937250257      0.295082569      -8.17200094E-02  0.260207951       1.04836794E-02
  0.582456887       5.36030112E-03  0.950223744      0.940884173      0.287878364      -6.40587360E-02  0.250486463       1.05456952E-02
  0.592476368       3.48527008E-03  0.951524675      0.942715406      0.284732521      -5.00729941E-02  0.245474666       1.05747180E-02